<UPF version="2.0.1">
  <PP_INFO>
    Generated using FHI98PP, converted with fhi2upf.x v.5.0.2
    Author: unknown
    Generation date: unknown
    Pseudopotential type: SL
    Element:  W
    Functional: PBE

    Suggested minimum cutoff for wavefunctions:   0. Ry
    Suggested minimum cutoff for charge density:   0. Ry
    The Pseudo was generated with a Non-Relativistic Calculation
    L component and cutoff radius for Local Potential:  1   0.0000

    Valence configuration: 
    nl pn  l   occ       Rcut    Rcut US       E pseu
    6s  6  0  2.00      0.000      0.000     0.000000
    6p  6  1  0.00      0.000      0.000     0.000000
    5d  5  2  4.25      0.000      0.000     0.000000
    5f  5  3  0.00      0.000      0.000     0.000000

    Generation configuration: not available.
    Comment:
    tungsten, fhi98PP : Trouiller-Martins-type, GGA Perdew/Burke/Ernzerhof (1996), l
  </PP_INFO>
  <!--                               -->
  <!-- END OF HUMAN READABLE SECTION -->
  <!--                               -->
  <PP_HEADER generated="Generated using FHI98PP, converted with fhi2upf.x v.5.0.2"
             author="unknown"
             date="unknown"
             comment="tungsten, fhi98PP : Trouiller-Martins-type, GGA Perdew/Burke/Ernzerhof (1996), l"
             element=" W"
             pseudo_type="SL"
             relativistic="no"
             is_ultrasoft="F"
             is_paw="F"
             is_coulomb="F"
             has_so="F"
             has_wfc="F"
             has_gipaw="F"
             paw_as_gipaw="F"
             core_correction="F"
             functional="PBE"
             z_valence="6.250000000000000E+000"
             total_psenergy="0.000000000000000E+000"
             wfc_cutoff="0.000000000000000E+000"
             rho_cutoff="0.000000000000000E+000"
             l_max="3"
             l_max_rho="0"
             l_local="1"
             mesh_size="565"
             number_of_wfc="4"
             number_of_proj="3"/>
  <PP_MESH dx="2.439988682353512E-002" mesh="565" xmin="-5.075173815233829E+000" rmax="7.975221978379700E+001"
zmesh="7.425000000000000E+001">
    <PP_R type="real" size="565" columns="4">
 8.417508417508400E-005  8.625420875420901E-005  8.838468771043799E-005  9.056778949688500E-005 
 9.280481389745901E-005  9.509709280072599E-005  9.744599099290400E-005  9.985290697042801E-005 
 1.023192737726000E-004  1.048465598347800E-004  1.074362698627000E-004  1.100899457283100E-004 
 1.128091673878000E-004  1.155955538222800E-004  1.184507640016900E-004  1.213764978725300E-004 
 1.243744973699800E-004  1.274465474550200E-004  1.305944771771600E-004  1.338201607634300E-004 
 1.371255187342900E-004  1.405125190470300E-004  1.439831782674900E-004  1.475395627707000E-004 
 1.511837899711300E-004  1.549180295834200E-004  1.587445049141300E-004  1.626654941855100E-004 
 1.666833318918900E-004  1.708004101896200E-004  1.750191803213000E-004  1.793421540752400E-004 
 1.837719052809000E-004  1.883110713413400E-004  1.929623548034700E-004  1.977285249671100E-004 
 2.026124195338000E-004  2.076169462962900E-004  2.127450848698000E-004  2.179998884660900E-004 
 2.233844857112000E-004  2.289020825082700E-004  2.345559639462200E-004  2.403494962556900E-004 
 2.462861288132100E-004  2.523693961948900E-004  2.586029202809100E-004  2.649904124118500E-004 
 2.715356755984200E-004  2.782426067857000E-004  2.851151991733100E-004  2.921575445928900E-004 
 2.993738359443300E-004  3.067683696921600E-004  3.143455484235500E-004  3.221098834696200E-004 
 3.300659975913100E-004  3.382186277318200E-004  3.465726278368000E-004  3.551329717443600E-004 
 3.639047561464500E-004  3.728932036232700E-004  3.821036657527600E-004  3.915416262968600E-004 
 4.012127044663900E-004  4.111226582667100E-004  4.212773879259000E-004  4.316829394076700E-004 
 4.423455080110300E-004  4.532714420589100E-004  4.644672466777600E-004  4.759395876707000E-004 
 4.876952954861700E-004  4.997413692846800E-004  5.120849811060100E-004  5.247334801393300E-004 
 5.376943970987700E-004  5.509754487071100E-004  5.645845422901700E-004  5.785297804847400E-004 
 5.928194660627100E-004  6.074621068744600E-004  6.224664209142599E-004  6.378413415108400E-004 
 6.535960226461600E-004  6.697398444055200E-004  6.862824185623400E-004  7.032335943008300E-004 
 7.206034640800600E-004  7.384023696428400E-004  7.566409081730100E-004  7.753299386048900E-004 
 7.944805880884300E-004  8.141042586142100E-004  8.342126338019799E-004  8.548176858568900E-004 
 8.759316826975600E-004  8.975671952601900E-004  9.197371049831100E-004  9.424546114762000E-004 
 9.657332403796599E-004  9.895868514170399E-004  1.014029646647000E-003  1.039076178919200E-003 
 1.064741360538500E-003  1.091040472143800E-003  1.117989171805800E-003  1.145603504349400E-003 
 1.173899910906800E-003  1.202895238706200E-003  1.232606751102300E-003  1.263052137854500E-003 
 1.294249525659500E-003  1.326217488943300E-003  1.358975060920200E-003  1.392541744924900E-003 
 1.426937526024500E-003  1.462182882917300E-003  1.498298800125400E-003  1.535306780488500E-003 
 1.573228857966600E-003  1.612087610758300E-003  1.651906174744100E-003  1.692708257260300E-003 
 1.734518151214600E-003  1.777360749549600E-003  1.821261560063500E-003  1.866246720597000E-003 
 1.912343014595800E-003  1.959577887056300E-003  2.007979460866600E-003  2.057576553550000E-003 
 2.108398694422700E-003  2.160476142174900E-003  2.213839902886600E-003  2.268521748487900E-003 
 2.324554235675600E-003  2.381970725296800E-003  2.440805402211600E-003  2.501093295646200E-003 
 2.562870300048700E-003  2.626173196459900E-003  2.691039674412400E-003  2.757508354370400E-003 
 2.825618810723400E-003  2.895411595348200E-003  2.966928261753300E-003  3.040211389818700E-003 
 3.115304611147200E-003  3.192252635042500E-003  3.271101275128100E-003  3.351897476623700E-003 
 3.434689344296300E-003  3.519526171100400E-003  3.606458467526600E-003  3.695537991674500E-003 
 3.786817780068900E-003  3.880352179236600E-003  3.976196878063700E-003  4.074408940951900E-003 
 4.175046841793400E-003  4.278170498785700E-003  4.383841310105700E-003  4.492122190465300E-003 
 4.603077608569800E-003  4.716773625501500E-003  4.833277934051400E-003  4.952659899022500E-003 
 5.074990598528300E-003  5.200342866312000E-003  5.328791335109900E-003  5.460412481087100E-003 
 5.595284669369900E-003  5.733488200703400E-003  5.875105359260800E-003  6.020220461634500E-003 
 6.168919907036900E-003  6.321292228740700E-003  6.477428146790600E-003  6.637420622016300E-003 
 6.801364911380100E-003  6.969358624691200E-003  7.141501782721100E-003  7.317896876754300E-003 
 7.498648929610100E-003  7.683865558171500E-003  7.873657037458300E-003  8.068136366283500E-003 
 8.267419334530700E-003  8.471624592093600E-003  8.680873719518300E-003  8.895291300390400E-003 
 9.115004995510099E-003  9.340145618899200E-003  9.570847215686001E-003  9.807247141913399E-003 
 1.004948614631900E-002  1.029770845413300E-002  1.055206185295000E-002  1.081269778071800E-002 
 1.107977141590100E-002  1.135344176987400E-002  1.163387178159000E-002  1.192122841459500E-002 
 1.221568275643600E-002  1.251741012052000E-002  1.282659015049700E-002  1.314340692721400E-002 
 1.346804907831600E-002  1.380070989055100E-002  1.414158742484700E-002  1.449088463424100E-002 
 1.484880948470700E-002  1.521557507897900E-002  1.559139978343000E-002  1.597650735808000E-002 
 1.637112708982500E-002  1.677549392894400E-002  1.718984862898900E-002  1.761443789012500E-002 
 1.804951450601100E-002  1.849533751430900E-002  1.895217235091300E-002  1.942029100798000E-002 
 1.989997219587700E-002  2.039150150911500E-002  2.089517159639000E-002  2.141128233482100E-002 
 2.194014100849100E-002  2.248206249140100E-002  2.303736943493900E-002  2.360639245998200E-002 
 2.418947035374300E-002  2.478695027148100E-002  2.539918794318600E-002  2.602654788538300E-002 
 2.666940361815200E-002  2.732813788752000E-002  2.800314289334200E-002  2.869482052280800E-002 
 2.940358258972100E-002  3.012985107968700E-002  3.087405840135500E-002  3.163664764386900E-002 
 3.241807284067200E-002  3.321879923983700E-002  3.403930358106100E-002  3.488007437951300E-002 
 3.574161221668700E-002  3.662443003843900E-002  3.752905346038900E-002  3.845602108086000E-002 
 3.940588480155800E-002  4.037921015615600E-002  4.137657664701300E-002  4.239857809019400E-002 
 4.344582296902200E-002  4.451893479635700E-002  4.561855248582700E-002  4.674533073222700E-002 
 4.789994040131300E-002  4.908306892922500E-002  5.029542073177700E-002  5.153771762385200E-002 
 5.281069924916100E-002  5.411512352061600E-002  5.545176707157500E-002  5.682142571824300E-002 
 5.822491493348300E-002  5.966307033234000E-002  6.113674816954900E-002  6.264682584933701E-002 
 6.419420244781500E-002  6.577979924827700E-002  6.740456028970900E-002  6.906945292886500E-002 
 7.077546841620801E-002  7.252362248608800E-002  7.431495596149400E-002  7.615053537374300E-002 
 7.803145359747500E-002  7.995883050133200E-002  8.193381361471500E-002  8.395757881099900E-002 
 8.603133100763000E-002  8.815630488351900E-002  9.033376561414200E-002  9.256500962481100E-002 
 9.485136536254400E-002  9.719419408699900E-002  9.959489068094800E-002  1.020548844807700E-001 
 1.045756401274400E-001  1.071586584385900E-001  1.098054773020200E-001  1.125176725913800E-001 
 1.152968591043900E-001  1.181446915242700E-001  1.210628654049200E-001  1.240531181804200E-001 
 1.271172301994800E-001  1.302570257854000E-001  1.334743743223000E-001  1.367711913680600E-001 
 1.401494397948500E-001  1.436111309577900E-001  1.471583258924400E-001  1.507931365419900E-001 
 1.545177270145700E-001  1.583343148718300E-001  1.622451724491700E-001  1.662526282086600E-001 
 1.703590681254200E-001  1.745669371081200E-001  1.788787404546900E-001  1.832970453439200E-001 
 1.878244823639100E-001  1.924637470783000E-001  1.972176016311300E-001  2.020888763914200E-001 
 2.070804716382900E-001  2.121953592877600E-001  2.174365846621600E-001  2.228072683033200E-001 
 2.283106078304100E-001  2.339498798438200E-001  2.397284418759700E-001  2.456497343903000E-001 
 2.517172828297400E-001  2.579346997156400E-001  2.643056867986100E-001  2.708340372625400E-001 
 2.775236379829200E-001  2.843784718411000E-001  2.914026200955800E-001  2.986002648119400E-001 
 3.059756913527900E-001  3.135332909292100E-001  3.212775632151600E-001  3.292131190265700E-001 
 3.373446830665300E-001  3.456770967382700E-001  3.542153210277100E-001  3.629644394570900E-001 
 3.719296611116800E-001  3.811163237411400E-001  3.905298969375500E-001  4.001759853919000E-001 
 4.100603322310800E-001  4.201888224371900E-001  4.305674863513900E-001  4.412025032642700E-001 
 4.521002050949000E-001  4.632670801607400E-001  4.747097770407100E-001  4.864351085336200E-001 
 4.984500557144000E-001  5.107617720905400E-001  5.233775878611800E-001  5.363050142813500E-001 
 5.495517481341000E-001  5.631256763130100E-001  5.770348805179401E-001  5.912876420667400E-001 
 6.058924468257800E-001  6.208579902623800E-001  6.361931826218600E-001  6.519071542326200E-001 
 6.680092609421699E-001  6.845090896874400E-001  7.014164642027200E-001  7.187414508685300E-001 
 7.364943647049800E-001  7.546857755131900E-001  7.733265141683699E-001  7.924276790683300E-001 
 8.120006427413100E-001  8.320570586170200E-001  8.526088679648600E-001  8.736683070036000E-001 
 8.952479141865800E-001  9.173605376669900E-001  9.400193429473700E-001  9.632378207181700E-001 
 9.870297948899101E-001  1.011409430823700E+000  1.036391243765000E+000  1.061990107486000E+000 
 1.088221263140900E+000  1.115100328340500E+000  1.142643306450500E+000  1.170866596119900E+000 
 1.199787001044000E+000  1.229421739969800E+000  1.259788456947100E+000  1.290905231833600E+000 
 1.322790591059900E+000  1.355463518659100E+000  1.388943467570000E+000  1.423250371219000E+000 
 1.458404655388100E+000  1.494427250376200E+000  1.531339603460500E+000  1.569163691665900E+000 
 1.607922034850100E+000  1.647637709110900E+000  1.688334360525900E+000  1.730036219230900E+000 
 1.772768113845900E+000  1.816555486257900E+000  1.861424406768500E+000  1.907401589615700E+000 
 1.954514408879200E+000  2.002790914778500E+000  2.052259850373500E+000  2.102950668677700E+000 
 2.154893550194100E+000  2.208119420883900E+000  2.262659970579700E+000  2.318547671853000E+000 
 2.375815799347800E+000  2.434498449591700E+000  2.494630561296600E+000  2.556247936160600E+000 
 2.619387260183800E+000  2.684086125510300E+000  2.750383052810400E+000  2.818317514214800E+000 
 2.887929956816000E+000  2.959261826749300E+000  3.032355593870000E+000  3.107254777038600E+000 
 3.184003970031500E+000  3.262648868091200E+000  3.343236295133100E+000  3.425814231622900E+000 
 3.510431843144000E+000  3.597139509669600E+000  3.685988855558500E+000  3.777032780290700E+000 
 3.870325489963900E+000  3.965922529566000E+000  4.063880816046300E+000  4.164258672202700E+000 
 4.267115861406100E+000  4.372513623182800E+000  4.480514709675400E+000  4.591183423004400E+000 
 4.704585653552600E+000  4.820788919195400E+000  4.939862405499500E+000  5.061877006915300E+000 
 5.186905368986100E+000  5.315021931600100E+000  5.446302973310600E+000  5.580826656751400E+000 
 5.718673075173100E+000  5.859924300129900E+000  6.004664430343100E+000  6.152979641772600E+000 
 6.304958238924400E+000  6.460690707425800E+000  6.620269767899200E+000  6.783790431166300E+000 
 6.951350054816100E+000  7.123048401170100E+000  7.298987696679000E+000  7.479272692787000E+000 
 7.664010728298800E+000  7.853311793287800E+000  8.047288594582000E+000  8.246056622868201E+000 
 8.449734221452999E+000  8.658442656722899E+000  8.872306190344000E+000  9.091452153245500E+000 
 9.316011021430599E+000  9.546116493660000E+000  9.781905571053400E+000  1.002351863865800E+001 
 1.027109954903300E+001  1.052479570789400E+001  1.078475816187900E+001  1.105114168847800E+001 
 1.132410488818300E+001  1.160381027892100E+001  1.189042439281100E+001  1.218411787531300E+001 
 1.248506558683300E+001  1.279344670682800E+001  1.310944484048700E+001  1.343324812804700E+001 
 1.376504935681000E+001  1.410504607592300E+001  1.445344071399800E+001  1.481044069963400E+001 
 1.517625858491500E+001  1.555111217196200E+001  1.593522464261000E+001  1.632882469128200E+001 
 1.673214666115700E+001  1.714543068368700E+001  1.756892282157400E+001  1.800287521526700E+001 
 1.844754623308400E+001  1.890320062504100E+001  1.937010968048000E+001  1.984855138958800E+001 
 2.033881060891100E+001  2.084117923095100E+001  2.135595635795500E+001  2.188344847999700E+001 
 2.242396965745300E+001  2.297784170799200E+001  2.354539439817900E+001  2.412696563981400E+001 
 2.472290169111800E+001  2.533355736288800E+001  2.595929622975100E+001  2.660049084662600E+001 
 2.725752297053800E+001  2.793078378791000E+001  2.862067414747200E+001  2.932760479891400E+001 
 3.005199663744700E+001  3.079428095439200E+001  3.155489969396600E+001  3.233430571640700E+001 
 3.313296306760200E+001  3.395134725537200E+001  3.478994553258000E+001  3.564925718723400E+001 
 3.652979383975900E+001  3.743207974760100E+001  3.835665211736700E+001  3.930406142466600E+001 
 4.027487174185500E+001  4.126966107387900E+001  4.228902170240300E+001  4.333356053845300E+001 
 4.440389948375300E+001  4.550067580100100E+001  4.662454249328600E+001  4.777616869287000E+001 
 4.895624005958400E+001  5.016545918905600E+001  5.140454603102600E+001  5.267423831799200E+001 
 5.397529200444600E+001  5.530848171695600E+001  5.667460121536500E+001  5.807446386538400E+001 
 5.950890312285900E+001  6.097877302999400E+001  6.248494872383500E+001  6.402832695731399E+001 
 6.560982663315900E+001  6.723038935099800E+001  6.889097996796799E+001  7.059258717317699E+001 
 7.233622407635400E+001  7.412292881104000E+001  7.595376515267300E+001  7.782982315194400E+001 
 7.975221978379700E+001
    </PP_R>
    <PP_RAB type="real" size="565" columns="4">
 2.053862527233591E-006  2.104592931656272E-006  2.156576377068182E-006  2.209843813581746E-006 
 2.264426955777239E-006  2.320358301584931E-006  2.377671151634080E-006  2.436399629079424E-006 
 2.496578699917745E-006  2.558244193805635E-006  2.621432825392656E-006  2.686182216179887E-006 
 2.752530916919549E-006  2.820518430567494E-006  2.890185235802504E-006  2.961572811126783E-006 
 3.034723659561578E-006  3.109681333952786E-006  3.186490462901444E-006  3.265196777334967E-006 
 3.345847137735220E-006  3.428489562037354E-006  3.513173254219637E-006  3.599948633598935E-006 
 3.688867364848676E-006  3.779982388760513E-006  3.873347953762887E-006  3.969019648220853E-006 
 4.067054433531858E-006  4.167510678040102E-006  4.270448191787604E-006  4.375928262124854E-006 
 4.484013690199376E-006  4.594768828347343E-006  4.708259618407496E-006  4.824553630982022E-006 
 4.943720105667336E-006  5.065829992277445E-006  5.190955993086493E-006  5.319172606115875E-006 
 5.450556169486878E-006  5.585184906873285E-006  5.723138974072951E-006  5.864500506732514E-006 
 6.009353669248916E-006  6.157784704879210E-006  6.309881987089878E-006  6.465736072171036E-006 
 6.625439753153594E-006  6.789088115056465E-006  6.956778591498437E-006  7.128611022708431E-006 
 7.304687714969222E-006  7.485113501529084E-006  7.669995805016699E-006  7.859444701400813E-006 
 8.053572985525179E-006  8.252496238267764E-006  8.456332895353077E-006  8.665204317868077E-006 
 8.879234864519525E-006  9.098551965673224E-006  9.323286199225235E-006  9.553571368346265E-006 
 9.789544581144357E-006  1.003134633229863E-005  1.027912058670646E-005  1.053301486519812E-005 
 1.079318033236828E-005  1.105977188657796E-005  1.133294825217631E-005  1.161287207400505E-005 
 1.189971001423307E-005  1.219363285158466E-005  1.249481558301876E-005  1.280343752791936E-005 
 1.311968243485894E-005  1.344373859099996E-005  1.377579893419753E-005  1.411606116787227E-005 
 1.446472787871864E-005  1.482200665732302E-005  1.518811022175892E-005  1.556325654423631E-005 
 1.594766898087900E-005  1.634157640470671E-005  1.674521334190305E-005  1.715882011144806E-005 
 1.758264296820082E-005  1.801693424951544E-005  1.846195252547827E-005  1.891796275285775E-005 
 1.938523643285331E-005  1.986405177274469E-005  2.035469385153146E-005  2.085745478966431E-005 
 2.137263392296914E-005  2.190053798086648E-005  2.244148126899372E-005  2.299578585633804E-005 
 2.356378176698954E-005  2.414580717663424E-005  2.474220861389610E-005  2.535334116665981E-005 
 2.597956869347620E-005  2.662126404020504E-005  2.727880926199928E-005  2.795259585077058E-005 
 2.864302496828388E-005  2.935050768500054E-005  3.007546522482144E-005  3.081832921587387E-005 
 3.157954194750581E-005  3.235955663360946E-005  3.315883768245962E-005  3.397786097321566E-005 
 3.481711413925300E-005  3.567709685849242E-005  3.655832115089822E-005  3.746131168332548E-005 
 3.838660608190445E-005  3.933475525212565E-005  4.030632370685486E-005  4.130188990241469E-005 
 4.232204658300361E-005  4.336740113360378E-005  4.443857594160440E-005  4.553620876736037E-005 
 4.666095312391548E-005  4.781347866607580E-005  4.899447158912811E-005  5.020463503737944E-005 
 5.144468952280308E-005  5.271537335401533E-005  5.401744307585902E-005  5.535167391983276E-005 
 5.671886026565382E-005  5.811981611421578E-005  5.955537557223615E-005  6.102639334886974E-005 
 6.253374526458777E-005  6.407832877262301E-005  6.566106349330536E-005  6.728289176159032E-005 
 6.894477918810286E-005  7.064771523404734E-005  7.239271380032830E-005  7.418081383119869E-005 
 7.601307993282875E-005  7.789060300716875E-005  7.981450090144705E-005  8.178591907371122E-005 
 8.380603127483177E-005  8.587604024731965E-005  8.799717844142894E-005  9.017070874893206E-005 
 9.239792525503167E-005  9.468015400883090E-005  9.701875381284796E-005  9.941511703202593E-005 
 1.018706704227167E-004  1.043868759821579E-004  1.069652318189170E-004  1.096072730448440E-004 
 1.123145726890518E-004  1.150887426344720E-004  1.179314345775438E-004  1.208443410116099E-004 
 1.238291962345953E-004  1.268877773815910E-004  1.300219054829162E-004  1.332334465483438E-004 
 1.365243126780867E-004  1.398964632012370E-004  1.433519058423081E-004  1.468926979166121E-004 
 1.505209475551531E-004  1.542388149597652E-004  1.580485136892714E-004  1.619523119773958E-004 
 1.659525340832374E-004  1.700515616750936E-004  1.742518352484691E-004  1.785558555791060E-004 
 1.829661852119092E-004  1.874854499866441E-004  1.921163406013133E-004  1.968616142141653E-004 
 2.017240960852551E-004  2.067066812585607E-004  2.118123362856468E-004  2.170441009919023E-004 
 2.224050902864036E-004  2.278984960164778E-004  2.335275888680846E-004  2.392957203131252E-004 
 2.452063246048677E-004  2.512629208226060E-004  2.574691149669223E-004  2.638286021066085E-004 
 2.703451685786238E-004  2.770226942425218E-004  2.838651547903149E-004  2.908766241136290E-004 
 2.980612767292479E-004  3.054233902644611E-004  3.129673480039971E-004  3.206976414996891E-004 
 3.286188732447269E-004  3.367357594138861E-004  3.450531326713942E-004  3.535759450483845E-004 
 3.623092708910856E-004  3.712583098820890E-004  3.804283901361820E-004  3.898249713725281E-004 
 3.994536481654399E-004  4.093201532751341E-004  4.194303610610319E-004  4.297902909792387E-004 
 4.404061111664237E-004  4.512841421122229E-004  4.624308604224087E-004  4.738529026748287E-004 
 4.855570693708944E-004  4.975503289843515E-004  5.098398221102616E-004  5.224328657163892E-004 
 5.353369574995820E-004  5.485597803498284E-004  5.621092069244787E-004  5.759933043355136E-004 
 5.902203389525873E-004  6.047987813247294E-004  6.197373112234361E-004  6.350448228106625E-004 
 6.507304299340868E-004  6.668034715534501E-004  6.832735173008265E-004  7.001503731781680E-004 
 7.174440873956600E-004  7.351649563543301E-004  7.533235307762755E-004  7.719306219864624E-004 
 7.909973083495145E-004  8.105349418657572E-004  8.305551549298420E-004  8.510698672566041E-004 
 8.720912929778429E-004  8.936319479143916E-004  9.157046570278905E-004  9.383225620564646E-004 
 9.614991293392779E-004  9.852481578339462E-004  1.009583787332443E-003  1.034520506879549E-003 
 1.060073163399479E-003  1.086256970535450E-003  1.113087517707676E-003  1.140580779395057E-003 
 1.168753124646114E-003  1.197621326824863E-003  1.227202573597441E-003  1.257514477165300E-003 
 1.288575084751279E-003  1.320402889344654E-003  1.353016840711461E-003  1.386436356677037E-003 
 1.420681334686945E-003  1.455772163653712E-003  1.491729736095963E-003  1.528575460577537E-003 
 1.566331274453787E-003  1.605019656932819E-003  1.644663642459049E-003  1.685286834427792E-003 
 1.726913419238160E-003  1.769568180693334E-003  1.813276514756450E-003  1.858064444670937E-003 
 1.903958636454322E-003  1.950986414774728E-003  1.999175779219667E-003  2.048555420966405E-003 
 2.099154739864259E-003  2.151003861938920E-003  2.204133657328813E-003  2.258575758664827E-003 
 2.314362579903853E-003  2.371527335627482E-003  2.430104060817484E-003  2.490127631119738E-003 
 2.551633783608274E-003  2.614659138063452E-003  2.679241218773542E-003  2.745418476877251E-003 
 2.813230313256190E-003  2.882717101993656E-003  2.953920214412913E-003  3.026882043708875E-003 
 3.101646030188573E-003  3.178256687134055E-003  3.256759627306282E-003  3.337201590100728E-003 
 3.419630469376189E-003  3.504095341969956E-003  3.590646496916433E-003  3.679335465390434E-003 
 3.770215051385403E-003  3.863339363154625E-003  3.958763845424686E-003  4.056545312406566E-003 
 4.156741981623157E-003  4.259413508569300E-003  4.364621022230949E-003  4.472427161480033E-003 
 4.582896112368472E-003  4.696093646344008E-003  4.812087159408607E-003  4.930945712246026E-003 
 5.052740071338550E-003  5.177542751100716E-003  5.305428057052716E-003  5.436472130062032E-003 
 5.570752991674514E-003  5.708350590568848E-003  5.849346850156084E-003  5.993825717354783E-003 
 6.141873212573435E-003  6.293577480924131E-003  6.449028844702804E-003  6.608319857167070E-003 
 6.771545357638980E-003  6.938802527972708E-003  7.110190950413752E-003  7.285812666888952E-003 
 7.465772239760989E-003  7.650176814083234E-003  7.839136181391053E-003  8.032762845071303E-003 
 8.231172087344656E-003  8.434482037901989E-003  8.642813744238283E-003  8.856291243720860E-003 
 9.075041637440762E-003  9.299195165885586E-003  9.528885286483055E-003  9.764248753059004E-003 
 1.000542569725956E-002  1.025255971198193E-002  1.050579793686792E-002  1.076529114590857E-002 
 1.103119383721258E-002  1.130366432499163E-002  1.158286483381891E-002  1.186896159521435E-002 
 1.216212494661613E-002  1.246252943279741E-002  1.277035390978760E-002  1.308578165135933E-002 
 1.340900045814792E-002  1.374020276946412E-002  1.407958577786985E-002  1.442735154658340E-002 
 1.478370712978380E-002  1.514886469588954E-002  1.552304165387799E-002  1.590646078272878E-002 
 1.629935036406228E-002  1.670194431805458E-002  1.711448234271054E-002  1.753721005657556E-002 
 1.797037914497291E-002  1.841424750985367E-002  1.886907942334715E-002  1.933514568510386E-002 
 1.981272378352574E-002  2.030209806097881E-002  2.080355988308498E-002  2.131740781219737E-002 
 2.184394778515843E-002  2.238349329545188E-002  2.293636557984967E-002  2.350289380967196E-002 
 2.408341528677089E-002  2.467827564435435E-002  2.528782905276880E-002  2.591243843037230E-002 
 2.655247565960239E-002  2.720832180839505E-002  2.788036735706215E-002  2.856901243078337E-002 
 2.927466703782221E-002  2.999775131365674E-002  3.073869577110518E-002  3.149794155664921E-002 
 3.227594071309869E-002  3.307315644871272E-002  3.389006341299642E-002  3.472714797929795E-002 
 3.558490853438637E-002  3.646385577518606E-002  3.736451301283335E-002  3.828741648424851E-002 
 3.923311567141073E-002  4.020217362849464E-002  4.119516731711750E-002  4.221268794985055E-002 
 4.325534134221178E-002  4.432374827336456E-002  4.541854485571740E-002  4.654038291365405E-002 
 4.768993037162112E-002  4.886787165179977E-002  5.007490808159851E-002  5.131175831121338E-002 
 5.257915874150183E-002  5.387786396241707E-002  5.520864720228798E-002  5.657230078818404E-002 
 5.796963661765294E-002  5.940148664210919E-002  6.086870336216893E-002  6.237216033521387E-002 
 6.391275269549446E-002  6.549139768707220E-002  6.710903520994277E-002  6.876662837962795E-002 
 7.046516410060706E-002  7.220565365389070E-002  7.398913329914163E-002  7.581666489163068E-002 
 7.768933651445510E-002  7.960826312636023E-002  8.157458722558249E-002  8.358947953005468E-002 
 8.565413967444738E-002  8.776979692440486E-002  8.993771090843913E-002  9.215917236787527E-002 
 9.443550392536226E-002  9.676806087231850E-002  9.915823197586526E-002  1.016074403056705E-001 
 1.041171440812204E-001  1.066888375400258E-001  1.093240518272641E-001  1.120243559073979E-001 
 1.147913574983104E-001  1.176267040285199E-001  1.205320836180238E-001  1.235092260833880E-001 
 1.265599039676475E-001  1.296859335956494E-001  1.328891761554614E-001  1.361715388065020E-001 
 1.395349758150212E-001  1.429814897176528E-001  1.465131325136786E-001  1.501320068867671E-001 
 1.538402674568707E-001  1.576401220630546E-001  1.615338330780116E-001  1.655237187550382E-001 
 1.696121546082875E-001  1.738015748271132E-001  1.780944737253429E-001  1.824934072263595E-001 
 1.870009943848497E-001  1.916199189461559E-001  1.963529309441258E-001  2.012028483384463E-001 
 2.061725586924048E-001  2.112650208921075E-001  2.164832669081436E-001  2.218304036007749E-001 
 2.273096145697124E-001  2.329241620495859E-001  2.386773888522106E-001  2.445727203568500E-001 
 2.506136665496678E-001  2.568038241134418E-001  2.631468785690442E-001  2.696466064697139E-001 
 2.763068776495060E-001  2.831316575274458E-001  2.901250094683896E-001  2.972910972022483E-001 
 3.046341873031383E-001  3.121586517295313E-001  3.198689704272592E-001  3.277697339968118E-001 
 3.358656464265389E-001  3.441615278932693E-001  3.526623176322258E-001  3.613730768777479E-001 
 3.702989918766292E-001  3.794453769759722E-001  3.888176777872919E-001  3.984214744286266E-001 
 4.082624848470218E-001  4.183465682227291E-001  4.286797284578288E-001  4.392681177507402E-001 
 4.501180402591812E-001  4.612359558535787E-001  4.726284839631740E-001  4.843024075170679E-001 
 4.962646769827438E-001  5.085224145042151E-001  5.210829181424572E-001  5.339536662205884E-001 
 5.471423217762388E-001  5.606567371241097E-001  5.745049585310653E-001  5.886952310067821E-001 
 6.032360032126641E-001  6.181359324920020E-001  6.334038900245463E-001  6.490489661081562E-001 
 6.650804755710360E-001  6.815079633176334E-001  6.983412100115942E-001  7.155902378988670E-001 
 7.332653167749648E-001  7.513769700993078E-001  7.699359812607733E-001  7.889533999979155E-001 
 8.084405489778577E-001  8.284090305376164E-001  8.488707335919031E-001  8.698378407116054E-001 
 8.913228353771899E-001  9.133385094110054E-001  9.358979705934634E-001  9.590146504671229E-001 
 9.827023123336547E-001  1.006975059448300E+000  1.031847343416654E+000  1.057333972799061E+000 
 1.083450121927203E+000  1.110211339938788E+000  1.137633560035282E+000  1.165733108968150E+000 
 1.194526716759666E+000  1.224031526663636E+000  1.254265105372236E+000  1.285245453474922E+000 
 1.316991016175742E+000  1.349520694275288E+000  1.382853855423892E+000  1.417010345652849E+000 
 1.452010501190475E+000  1.487875160569889E+000  1.524625677035969E+000  1.562283931258764E+000 
 1.600872344360840E+000  1.640413891266552E+000  1.680932114380844E+000  1.722451137606056E+000 
 1.764995680704914E+000  1.808591074018326E+000  1.853263273546587E+000  1.899038876403187E+000 
 1.945945136650345E+000
    </PP_RAB>
  </PP_MESH>
  <PP_LOCAL type="real" size="565" columns="4">
-4.633214625570800E+000 -4.633214711253600E+000 -4.633214794859400E+000 -4.633214876437400E+000 
-4.633214956036200E+000 -4.633215033702800E+000 -4.633215109483000E+000 -4.633215183421600E+000 