<UPF version="2.0.1">
  <PP_INFO>
    Generated using FHI98PP, converted with fhi2upf.x v.5.0.2
    Author: unknown
    Generation date: unknown
    Pseudopotential type: SL
    Element: Re
    Functional: PBE

    Suggested minimum cutoff for wavefunctions:   0. Ry
    Suggested minimum cutoff for charge density:   0. Ry
    The Pseudo was generated with a Non-Relativistic Calculation
    L component and cutoff radius for Local Potential:  1   0.0000

    Valence configuration: 
    nl pn  l   occ       Rcut    Rcut US       E pseu
    6s  6  0  2.00      0.000      0.000     0.000000
    6p  6  1  0.00      0.000      0.000     0.000000
    5d  5  2  4.50      0.000      0.000     0.000000
    5f  5  3  0.00      0.000      0.000     0.000000

    Generation configuration: not available.
    Comment:
    tungsten, fhi98PP : Trouiller-Martins-type, GGA Perdew/Burke/Ernzerhof (1996), l
  </PP_INFO>
  <!--                               -->
  <!-- END OF HUMAN READABLE SECTION -->
  <!--                               -->
  <PP_HEADER generated="Generated using FHI98PP, converted with fhi2upf.x v.5.0.2"
             author="unknown"
             date="unknown"
             comment="tungsten, fhi98PP : Trouiller-Martins-type, GGA Perdew/Burke/Ernzerhof (1996), l"
             element="Re"
             pseudo_type="SL"
             relativistic="no"
             is_ultrasoft="F"
             is_paw="F"
             is_coulomb="F"
             has_so="F"
             has_wfc="F"
             has_gipaw="F"
             paw_as_gipaw="F"
             core_correction="F"
             functional="PBE"
             z_valence="6.500000000000000E+000"
             total_psenergy="0.000000000000000E+000"
             wfc_cutoff="0.000000000000000E+000"
             rho_cutoff="0.000000000000000E+000"
             l_max="3"
             l_max_rho="0"
             l_local="1"
             mesh_size="565"
             number_of_wfc="4"
             number_of_proj="3"/>
  <PP_MESH dx="2.439988682353512E-002" mesh="565" xmin="-5.075173815233832E+000" rmax="7.948459488519300E+001"
zmesh="7.450000000000000E+001">
    <PP_R type="real" size="565" columns="4">
 8.389261744966400E-005  8.596476510067100E-005  8.808809479865801E-005  9.026387074018501E-005 
 9.249338834746700E-005  9.477797503965000E-005  9.711899102312900E-005  9.951783010140000E-005 
 1.019759205049000E-004  1.044947257413800E-004  1.070757454671900E-004  1.097205163802300E-004 
 1.124306131348200E-004  1.152076492792500E-004  1.180532782164500E-004  1.209691941883900E-004 
 1.239571332848500E-004  1.270188744769800E-004  1.301562406765600E-004  1.333710998212700E-004 
 1.366653659868600E-004  1.400410005267400E-004  1.435000132397500E-004  1.470444635667700E-004 
 1.506764618168700E-004  1.543981704237400E-004  1.582118052332100E-004  1.621196368224700E-004 
 1.661239918519800E-004  1.702272544507300E-004  1.744318676356600E-004  1.787403347662600E-004 
 1.831552210349900E-004  1.876791549945500E-004  1.923148301229200E-004  1.970650064269500E-004 
 2.019325120857000E-004  2.069202451342200E-004  2.120311751890300E-004  2.172683452162000E-004 
 2.226348733430400E-004  2.281339547146100E-004  2.337688633960700E-004  2.395429543219500E-004 
 2.454596652937000E-004  2.515225190264600E-004  2.577351252464100E-004  2.641011828399900E-004 
 2.706244820561400E-004  2.773089067629300E-004  2.841584367599700E-004  2.911771501479500E-004 
 2.983692257566000E-004  3.057389456327900E-004  3.132906975899200E-004  3.210289778203900E-004 
 3.289583935725500E-004  3.370836658937900E-004  3.454096324413700E-004  3.539412503626700E-004 
 3.626835992466300E-004  3.716418841480200E-004  3.808214386864800E-004  3.902277282220300E-004 
 3.998663531091200E-004  4.097430520309100E-004  4.198637054160800E-004  4.302343389398500E-004 
 4.408611271116700E-004  4.517503969513300E-004  4.629086317560200E-004  4.743424749604000E-004 
 4.860587340919200E-004  4.980643848239901E-004  5.103665751291400E-004  5.229726295348300E-004 
 5.358900534843400E-004  5.491265378054099E-004  5.626899632892000E-004  5.765884053824400E-004 
 5.908301389953900E-004  6.054236434285800E-004  6.203776074212600E-004  6.357009343245700E-004 
 6.514027474023800E-004  6.674923952632200E-004  6.839794574262200E-004  7.008737500246500E-004 
 7.181853316502600E-004  7.359245093420199E-004  7.541018447227700E-004  7.727281602874200E-004 
 7.918145458465200E-004  8.113723651289300E-004  8.314132625476100E-004  8.519491701325400E-004 
 8.729923146348100E-004  8.945552248062900E-004  9.166507388590100E-004  9.392920121088300E-004 
 9.624925248079100E-004  9.862660901706699E-004  1.010626862597900E-003  1.035589346104100E-003 
 1.061168402952800E-003  1.087379262505800E-003  1.114237530289700E-003  1.141759197287800E-003 
 1.169960649460800E-003  1.198858677502500E-003  1.228470486836800E-003  1.258813707861700E-003 
 1.289906406445900E-003  1.321767094685100E-003  1.354414741923800E-003  1.387868786049300E-003 
 1.422149145064700E-003  1.457276228947800E-003  1.493270951802800E-003  1.530154744312400E-003 
 1.567949566496900E-003  1.606677920789400E-003  1.646362865432900E-003  1.687028028209000E-003 
 1.728697620505800E-003  1.771396451732300E-003  1.815149944090100E-003  1.859984147709100E-003 
 1.905925756157500E-003  1.953002122334600E-003  2.001241274756300E-003  2.050671934242800E-003 
 2.101323531018600E-003  2.153226222234700E-003  2.206410909923900E-003  2.260909259399000E-003 
 2.316753718106200E-003  2.373977534943400E-003  2.432614780056500E-003  2.492700365123900E-003 
 2.554270064142500E-003  2.617360534726800E-003  2.682009339934500E-003  2.748254970630900E-003 
 2.816136868405500E-003  2.885695449055100E-003  2.956972126646800E-003  3.030009338175000E-003 
 3.104850568827900E-003  3.181540377877900E-003  3.260124425211500E-003  3.340649498514200E-003 
 3.423163541127600E-003  3.507715680593400E-003  3.594356257904100E-003  3.683136857474300E-003 
 3.774110337853900E-003  3.867330863198900E-003  3.962853935519900E-003  4.060736427727200E-003 
 4.161036617492100E-003  4.263814221944200E-003  4.369130433226200E-003  4.477047954926900E-003 
 4.587631039413600E-003  4.700945526087100E-003  4.817058880581400E-003  4.936040234931800E-003 
 5.057960428734600E-003  5.182892051324400E-003  5.310909484992100E-003  5.442088949271400E-003 
 5.576508546318400E-003  5.714248307412400E-003  5.855390240605500E-003  6.000018379548500E-003 
 6.148218833523300E-003  6.300079838711300E-003  6.455691810727500E-003  6.615147398452500E-003 
 6.778541539194300E-003  6.945971515212400E-003  7.117537011638100E-003  7.293340175825600E-003 
 7.473485678168500E-003  7.658080774419200E-003  7.847235369547401E-003  8.041062083175199E-003 
 8.239676316629601E-003  8.443196321650401E-003  8.651743270795100E-003  8.865441329583799E-003 
 9.084417730424500E-003  9.308802848366000E-003  9.538730278720599E-003  9.774336916605000E-003 
 1.001576303844500E-002  1.026315238549500E-002  1.051665224941600E-002  1.077641355997700E-002 
 1.104259097490800E-002  1.131534297198900E-002  1.159483194339700E-002  1.188122429239900E-002 
 1.217469053242100E-002  1.247540538857200E-002  1.278354790167000E-002  1.309930153484100E-002 
 1.342285428275100E-002  1.375439878353500E-002  1.409413243348900E-002  1.444225750459600E-002 
 1.479898126495900E-002  1.516451610220400E-002  1.553907964992800E-002  1.592289491728100E-002 
 1.631619042173800E-002  1.671920032515500E-002  1.713216457318700E-002  1.755532903814400E-002 
 1.798894566538600E-002  1.843327262332100E-002  1.888857445711800E-002  1.935512224620800E-002 
 1.983319376569000E-002  2.032307365170200E-002  2.082505357089900E-002  2.133943239410000E-002 
 2.186651637423500E-002  2.240661932867800E-002  2.296006282609700E-002  2.352717637790100E-002 
 2.410829763443500E-002  2.470377258600600E-002  2.531395576888000E-002  2.593921047637200E-002 
 2.657990897513800E-002  2.723643272682400E-002  2.790917261517600E-002  2.859852917877100E-002 
 2.930491284948700E-002  3.002874419686900E-002  3.077045417853200E-002  3.153048439674200E-002 
 3.230928736134100E-002  3.310732675916600E-002  3.392507773011800E-002  3.476302715005200E-002 
 3.562167392065800E-002  3.650152926649800E-002  3.740311703938100E-002  3.832697403025300E-002 
 3.927365028880100E-002  4.024370945093400E-002  4.123772907437200E-002  4.225630098250900E-002 
 4.330003161677700E-002  4.436954239771200E-002  4.546547009493500E-002  4.658846720628000E-002 
 4.773920234627500E-002  4.891836064422800E-002  5.012664415214000E-002  5.136477226269800E-002 
 5.263348213758700E-002  5.393352914638500E-002  5.526568731630100E-002  5.663074979301400E-002 
 5.802952931290100E-002  5.946285868693000E-002  6.093159129649700E-002  6.243660160152000E-002 
 6.397878566107799E-002  6.555906166690700E-002  6.717837049007901E-002  6.883767624118400E-002 
 7.053796684434099E-002  7.228025462539700E-002  7.406557691464399E-002  7.589499666443600E-002 
 7.776960308204700E-002  7.969051227817400E-002  8.165886793144500E-002  8.367584196935100E-002 
 8.574263526599400E-002  8.786047835706400E-002  9.003063217248400E-002  9.225438878714400E-002 
 9.453307219018700E-002  9.686803907328401E-002  9.926067963839399E-002  1.017124184254600E-001 
 1.042247151605700E-001  1.067990656250400E-001  1.094370025459800E-001  1.121400965088600E-001 
 1.149099568926300E-001  1.177482328278800E-001  1.206566141787300E-001  1.236368325489400E-001 
 1.266906623129000E-001  1.298199216720300E-001  1.330264737373300E-001  1.363122276386400E-001 
 1.396791396613100E-001  1.431292144109500E-001  1.466645060069000E-001  1.502871193052700E-001 
 1.539992111521100E-001  1.578029916675700E-001  1.617007255617600E-001  1.656947334831300E-001 
 1.697873934001600E-001  1.739811420171500E-001  1.782784762249700E-001  1.826819545877300E-001 
 1.871941988660500E-001  1.918178955780400E-001  1.965557975988100E-001  2.014107257995100E-001 
 2.063855707267500E-001  2.114832943237000E-001  2.167069316935000E-001  2.220595929063300E-001 
 2.275444648511200E-001  2.331648131329400E-001  2.389239840173200E-001  2.448254064225500E-001 
 2.508725939611900E-001  2.570691470320300E-001  2.634187549637200E-001  2.699251982113200E-001 
 2.765923506071400E-001  2.834241816671400E-001  2.904247589543200E-001  2.975982505004900E-001 
 3.049489272878500E-001  3.124811657918600E-001  3.201994505869200E-001  3.281083770164200E-001 
 3.362126539287200E-001  3.445171064807600E-001  3.530266790108400E-001  3.617464379824000E-001 
 3.706815750005700E-001  3.798374099030800E-001  3.892193939276900E-001  3.988331129577000E-001 
 4.086842908477600E-001  4.187787928317000E-001  4.291226290146400E-001  4.397219579513000E-001 
 4.505830903127000E-001  4.617124926434200E-001  4.731167912117200E-001  4.848027759546400E-001 
 4.967774045207200E-001  5.090478064123900E-001  5.216212872307699E-001  5.345053330253700E-001 
 5.477076147511000E-001  5.612359928354500E-001  5.750985218584900E-001  5.893034553483900E-001 
 6.038592506954999E-001  6.187745741876800E-001  6.340583061701101E-001  6.497195463325099E-001 
 6.657676191269301E-001  6.822120793193600E-001  6.990627176785500E-001  7.163295668052100E-001 
 7.340229071053000E-001  7.521532729108000E-001  7.707314587517000E-001  7.897685257828601E-001 
 8.092758083697000E-001  8.292649208364300E-001  8.497477643810900E-001  8.707365341613000E-001 
 8.922437265550900E-001  9.142821466010000E-001  9.368649156220400E-001  9.600054790379100E-001 
 9.837176143701400E-001  1.008015439445100E+000  1.032913420799400E+000  1.058426382293100E+000 
 1.084569513935800E+000  1.111358380930000E+000  1.138808932938900E+000  1.166937513582500E+000 
 1.195760870168000E+000  1.225296163661200E+000  1.255560978903600E+000  1.286573335082500E+000 
 1.318351696459100E+000  1.350914983361600E+000  1.384282583450600E+000  1.418474363261900E+000 
 1.453510680034400E+000  1.489412393831300E+000  1.526200879958900E+000  1.563898041693900E+000 
 1.602526323323700E+000  1.642108723509800E+000  1.682668808980500E+000  1.724230728562400E+000 
 1.766819227557800E+000  1.810459662478500E+000  1.855178016141700E+000  1.901000913140400E+000 
 1.947955635695000E+000  1.996070139896700E+000  2.045373072352100E+000  2.095893787239200E+000 
 2.147662363784000E+000  2.200709624169500E+000  2.255067151886500E+000  2.310767310538100E+000 
 2.367843263108400E+000  2.426328991707100E+000  2.486259317802300E+000  2.547669922952000E+000 
 2.610597370048900E+000  2.675079125089200E+000  2.741153579478900E+000  2.808860072892000E+000 
 2.878238916692400E+000  2.949331417934700E+000  3.022179903957700E+000  3.096827747585500E+000 
 3.173319392950800E+000  3.251700381956700E+000  3.332017381391000E+000  3.414318210711400E+000 
 3.498651870516000E+000  3.585068571717700E+000  3.673619765439100E+000  3.764358173645500E+000 
 3.857337820534500E+000  3.952614064701700E+000  4.050243632099900E+000  4.150284649812700E+000 
 4.252796680663100E+000  4.357840758675500E+000  4.465479425414800E+000  4.575776767222500E+000 
 4.688798453372900E+000  4.804611775171200E+000  4.923285686017900E+000  5.044890842462600E+000 
 5.169499646271400E+000  5.297186287534300E+000  5.428026788836400E+000  5.562099050520700E+000 
 5.699482897068500E+000  5.840260124626100E+000  5.984514549704400E+000  6.132332059082100E+000 
 6.283800660941400E+000  6.439010537266700E+000  6.598054097537200E+000  6.761026033746300E+000 
 6.928023376779900E+000  7.099145554186300E+000  7.274494449374700E+000  7.454174462274300E+000 
 7.638292571492400E+000  7.826958398008300E+000  8.020284270439101E+000  8.218385291919001E+000 
 8.421379408629400E+000  8.629387480022499E+000  8.842533350779100E+000  9.060943924543301E+000 
 9.284749239479501E+000  9.514082545694700E+000  9.749080384573301E+000  9.989882670072300E+000 
 1.023663277202300E+001  1.048947760149200E+001  1.074856769824900E+001  1.101405732039600E+001 
 1.128610453620900E+001  1.156487131825400E+001  1.185052363981500E+001  1.214323157371800E+001 
 1.244316939358900E+001  1.275051567761100E+001  1.306545341484800E+001  1.338817011419400E+001 
 1.371885791601500E+001  1.405771370654000E+001  1.440493923509200E+001  1.476074123419900E+001 
 1.512533154268300E+001  1.549892723178800E+001  1.588175073441300E+001  1.627402997755300E+001 
 1.667599851799800E+001  1.708789568139300E+001  1.750996670472300E+001  1.794246288233000E+001 
 1.838564171552400E+001  1.883976706589700E+001  1.930510931242500E+001  1.978194551244200E+001 
 2.027055956659900E+001  2.077124238789400E+001  2.128429207487500E+001  2.181001408912400E+001 
 2.234872143712600E+001  2.290073485662300E+001  2.346638300758100E+001  2.404600266786800E+001 
 2.463993893376500E+001  2.524854542542900E+001  2.587218449743700E+001  2.651122745452400E+001 
 2.716605477265000E+001  2.783705632553500E+001  2.852463161677500E+001  2.922919001771000E+001 
 2.995115101114700E+001  3.069094444112300E+001  3.144901076881800E+001  3.222580133480800E+001 
 3.302177862777800E+001  3.383741655988400E+001  3.467320074891300E+001  3.552962880741100E+001 
 3.640721063895400E+001  3.730646874173700E+001  3.822793851965700E+001  3.917216860109300E+001 
 4.013972116554000E+001  4.113117227832900E+001  4.214711223360400E+001  4.318814590577400E+001 
 4.425489310964600E+001  4.534798896945400E+001  4.646808429700000E+001  4.761584597913600E+001 
 4.879195737482000E+001  4.999711872197800E+001  5.123204755441100E+001  5.249747912900500E+001 
 5.379416686349200E+001  5.512288278502000E+001  5.648441798981000E+001  5.787958311415800E+001 
 5.930920881707800E+001  6.077414627486000E+001  6.227526768784900E+001  6.381346679973900E+001 
 6.538965942969200E+001  6.700478401760600E+001  6.865980218284000E+001  7.035569929675700E+001 
 7.209348506938700E+001  7.387419415060000E+001  7.569888674612000E+001  7.756864924874900E+001 
 7.948459488519300E+001
    </PP_R>
    <PP_RAB type="real" size="565" columns="4">
 2.046970371101929E-006  2.097530539268154E-006  2.149339543588088E-006  2.202428230314717E-006 
 2.256828207603477E-006  2.312571864331296E-006  2.369692389380271E-006  2.428223791397956E-006 
 2.488200919045374E-006  2.549659481746014E-006  2.612636070945089E-006  2.677168181897443E-006 
 2.743294235990269E-006  2.811053603619227E-006  2.880486627628684E-006  2.951634647330958E-006 
 3.024540023120197E-006  3.099246161691125E-006  3.175797541884862E-006  3.254239741169393E-006 
 3.334619462776389E-006  3.416984563507078E-006  3.501384082225691E-006  3.587868269056621E-006 
 3.676488615302338E-006  3.767297884100143E-006  3.860350141837505E-006  3.955700790340885E-006 
 4.053406599862182E-006  4.153525742878927E-006  4.256117828727962E-006  4.361243939097523E-006 
 4.468966664393315E-006  4.579350141003725E-006  4.692460089486630E-006  4.808363853696800E-006 
 4.927130440883217E-006  5.048830562773111E-006  5.173536677673480E-006  5.301323033612038E-006 
 5.432265712542251E-006  5.566442675641969E-006  5.703933809730550E-006  5.844820974830822E-006 
 5.989188052909091E-006  6.137120997816082E-006  6.288707886462053E-006  6.444038971257510E-006 
 6.603206733847625E-006  6.766305940173745E-006  6.933433696895929E-006  7.104689509209472E-006 
 7.280175340086839E-006  7.459995670987033E-006  7.644257564060413E-006  7.833070725892681E-006 
 8.026547572822142E-006  8.224803297870801E-006  8.427955939328293E-006  8.636126451029657E-006 
 8.849438774370139E-006  9.068019912097038E-006  9.292000003925930E-006  9.521512404022752E-006 
 9.756693760402258E-006  9.997684096284065E-006  1.024462689346244E-005  1.049766917773079E-005 
 1.075696160642088E-005  1.102265855809952E-005  1.129491822448438E-005  1.157390270462930E-005 
 1.185977810143360E-005  1.215271462053900E-005  1.245288667166625E-005  1.276047297245641E-005 
 1.307565665487608E-005  1.339862537425168E-005  1.372957142099561E-005  1.406869183509412E-005 
 1.441618852342104E-005  1.477226837994963E-005  1.513714340893424E-005  1.551103085113504E-005 
 1.589415331315791E-005  1.628673889999294E-005  1.668902135082272E-005  1.710124017818810E-005 
 1.752364081058938E-005  1.795647473861090E-005  1.839999966465464E-005  1.885447965637155E-005 
 1.932018530388395E-005  1.979739388088990E-005  2.028638950974777E-005  2.078746333063864E-005 
 2.130091367490533E-005  2.182704624267549E-005  2.236617428486969E-005  2.291861878970603E-005 
 2.348470867381157E-005  2.406478097805483E-005  2.465918106821314E-005  2.526826284059878E-005 
 2.589238893275983E-005  2.653193093940060E-005  2.718726963360396E-005  2.785879519355262E-005 
 2.854690743483316E-005  2.925201604847399E-005  2.997454084487101E-005  3.071491200374008E-005 
 3.147357033023284E-005  3.225096751738926E-005  3.304756641506824E-005  3.386384130552000E-005 
 3.470027818576590E-005  3.555737505695437E-005  3.643564222086089E-005  3.733560258371788E-005 
 3.825779196753531E-005  3.920275942913408E-005  4.017106758703374E-005  4.116329295643121E-005 
 4.218002629245598E-005  4.322187294187980E-005  4.428945320354454E-005  4.538340269767146E-005 
 4.650437274430359E-005  4.765303075108813E-005  4.883006061064087E-005  5.003616310772417E-005 
 5.127205633648503E-005  5.253847612799476E-005  5.383617648835630E-005  5.516593004761820E-005 
 5.652852851979546E-005  5.792478317423385E-005  5.935552531863737E-005  6.082160679400782E-005 
 6.232390048182079E-005  6.386330082372127E-005  6.544072435406593E-005  6.705711024561180E-005 
 6.871342086867882E-005  7.041064236413480E-005  7.214978523052987E-005  7.393188492572454E-005 
 7.575800248338939E-005  7.762922514472792E-005  7.954666700580308E-005  8.151146968084584E-005 
 8.352480298196515E-005  8.558786561561841E-005  8.770188589632524E-005  8.986812247796371E-005 
 9.208786510316905E-005  9.436243537121753E-005  9.669318752488629E-005  9.908150925674997E-005 
 1.015288225353926E-004  1.040365844520179E-004  1.066062880879823E-004  1.092394634037557E-004 
 1.119376781498286E-004  1.147025388001290E-004  1.175356915084909E-004  1.204388230887516E-004 
 1.234136620190434E-004  1.264619794709151E-004  1.295855903638464E-004  1.327863544458333E-004 
 1.360661774006453E-004  1.394270119824397E-004  1.428708591784063E-004  1.463997694001140E-004 
 1.500158437042956E-004  1.537212350437911E-004  1.575181495493735E-004  1.614088478432438E-004 
 1.653956463849725E-004  1.694809188506813E-004  1.736670975462920E-004  1.779566748556864E-004 
 1.823522047246220E-004  1.868563041813186E-004  1.914716548945983E-004  1.962010047704944E-004 
 2.010471695883250E-004  2.060130346771578E-004  2.111015566336820E-004  2.163157650825354E-004 
 2.216587644800735E-004  2.271337359627318E-004  2.327439392410102E-004  2.384927145402632E-004 
 2.443834845894042E-004  2.504197566587725E-004  2.566051246482264E-004  2.629432712270480E-004 
 2.694379700263455E-004  2.760930878860151E-004  2.829125871567965E-004  2.899005280595717E-004 
 2.970610711026369E-004  3.043984795588769E-004  3.119171220039878E-004  3.196214749174803E-004 
 3.275161253479280E-004  3.356057736440231E-004  3.438952362530472E-004  3.523894485884931E-004 
 3.610934679686162E-004  3.700124766274535E-004  3.791517848001409E-004  3.885168338846990E-004 
 3.981131996816549E-004  4.079465957137935E-004  4.180228766279406E-004  4.283480416806332E-004 
 4.389282383101410E-004  4.497697657964007E-004  4.608790790115955E-004  4.722627922631620E-004 
 4.839276832320783E-004  4.958806970078973E-004  5.081289502239914E-004  5.206797352945191E-004 
 5.335405247563114E-004  5.467189757177776E-004  5.602229344180226E-004  5.740604408981333E-004 
 5.882397337883134E-004  6.027692552128958E-004  6.176576558166459E-004  6.329137999153333E-004 
 6.485467707732325E-004  6.645658760113337E-004  6.809806531488000E-004  6.978008752815790E-004 
 7.150365569010428E-004  7.326979598564905E-004  7.507955994649541E-004  7.693402507717447E-004 
 7.883429549657939E-004  8.078150259534461E-004  8.277680570945109E-004  8.482139281047474E-004 
 8.691648121289277E-004  8.906331829885060E-004  9.126318226083342E-004  9.351738286267428E-004 
 9.582726221938416E-004  9.819419559620201E-004  1.006195922274280E-003  1.031048961554456E-003 
 1.056515870904851E-003  1.082611812916216E-003  1.109352324695234E-003  1.136753327115209E-003 
 1.164831134294952E-003  1.193602463312038E-003  1.223084444155834E-003  1.253294629926487E-003 
 1.284251007285680E-003  1.315972007165627E-003  1.348476515742625E-003  1.381783885681476E-003 
 1.415913947657798E-003  1.450887022164954E-003  1.486723931612424E-003  1.523446012723239E-003 
 1.561075129237514E-003  1.599633684929690E-003  1.639144636947439E-003  1.679631509480042E-003 
 1.721118407764193E-003  1.763630032435987E-003  1.807191694237149E-003  1.851829329084814E-003 
 1.897569513513195E-003  1.944439480496981E-003  1.992467135665259E-003  2.041681073916174E-003 
 2.092110596441904E-003  2.143785728174018E-003  2.196737235659929E-003  2.250996645380721E-003 
 2.306596262521638E-003  2.363569190205907E-003  2.421949349203990E-003  2.481771498129272E-003 
 2.543071254133093E-003  2.605885114110276E-003  2.670250476428837E-003  2.736205663196490E-003 
 2.803789943077471E-003  2.873043554671534E-003  2.944007730471954E-003  3.016724721414499E-003 
 3.091237822033466E-003  3.167591396237726E-003  3.245830903724819E-003  3.326002927046772E-003 
 3.408155199344719E-003  3.492336632768672E-003  3.578597347598046E-003  3.666988702083708E-003 
 3.757563323025171E-003  3.850375137103963E-003  3.945479402990456E-003  4.042932744244186E-003 
 4.142793183026937E-003  4.245120174647851E-003  4.349974642961565E-003  4.457419016642795E-003 
 4.567517266353946E-003  4.680334942832853E-003  4.795939215920640E-003  4.914398914554108E-003 
 5.035784567743402E-003  5.160168446566647E-003  5.287624607196955E-003  5.418228934994734E-003 
 5.552059189689193E-003  5.689195051674450E-003  5.829718169450722E-003  5.973712208236208E-003 
 6.121262899779716E-003  6.272458093404240E-003  6.427387808311298E-003  6.586144287176491E-003 
 6.748822051069760E-003  6.915517955731273E-003  7.086331249237876E-003  7.261363631094009E-003 
 7.440719312781980E-003  7.624505079807698E-003  7.812830355278973E-003  8.005807265054439E-003 
 8.203550704501149E-003  8.406178406902342E-003  8.613811013552956E-003  8.826572145587526E-003 
 9.044588477583652E-003  9.267989812979870E-003  9.496909161360569E-003  9.731482817646077E-003 
 9.971850443242052E-003  1.021815514919014E-002  1.047054358137506E-002  1.072916600783499E-002 
 1.099417640822858E-002  1.126573256551174E-002  1.154399615988006E-002  1.182913286502887E-002 
 1.212131244679509E-002  1.242070886423113E-002  1.272750037317749E-002  1.304186963239497E-002 
 1.336400381231521E-002  1.369409470647935E-002  1.403233884572949E-002  1.437893761521890E-002 
 1.473409737431492E-002  1.509802957946053E-002  1.547095091007306E-002  1.585308339755183E-002 
 1.624465455747153E-002  1.664589752504095E-002  1.705705119390950E-002  1.747836035839906E-002 
 1.791007585925155E-002  1.835245473297504E-002  1.880576036487961E-002  1.927026264589196E-002 
 1.974623813324557E-002  2.023397021513670E-002  2.073374927945058E-002  2.124587288665294E-002 
 2.177064594695341E-002  2.230838090184314E-002  2.285939791011855E-002  2.342402503849862E-002 
 2.400259845694938E-002  2.459546263883645E-002  2.520297056601586E-002  2.582548393899535E-002 
 2.646337339229001E-002  2.711701871507923E-002  2.778680907733995E-002  2.847314326155048E-002 
 2.917642990011107E-002  2.989708771864505E-002  3.063554578529480E-002  3.139224376619112E-002 
 3.216763218721756E-002  3.296217270224087E-002  3.377633836798545E-002  3.461061392567640E-002 
 3.546549608963893E-002  3.634149384305423E-002  3.723912874097687E-002  3.815893522087936E-002 
 3.910146092083412E-002  4.006726700557884E-002  4.105692850061683E-002  4.207103463458406E-002 
 4.311018919005606E-002  4.417501086305099E-002  4.526613363136788E-002  4.638420713206267E-002 
 4.752989704822540E-002  4.870388550531739E-002  4.990687147729755E-002  5.113957120278687E-002 
 5.240271861149551E-002  5.369706576120030E-002  5.502338328550228E-002  5.638246085265427E-002 
 5.777510763571505E-002  5.920215279431532E-002  6.066444596833575E-002  6.216285778375324E-002 
 6.369828037101158E-002  6.527162789617783E-002  6.688383710521334E-002  6.853586788171140E-002 
 7.022870381838887E-002  7.196335280270304E-002  7.374084761693012E-002  7.556224655306938E-002 
 7.742863404292868E-002  7.934112130378940E-002  8.130084699999225E-002  8.330897792089309E-002 
 8.536670967553985E-002  8.747526740452458E-002  8.963590650941566E-002  9.184991340019955E-002 
 9.411860626118342E-002  9.644333583583460E-002  9.882548623098136E-002  1.012664757408850E-001 
 1.037677576916855E-001  1.063308213066706E-001  1.089571925929457E-001  1.116484352499904E-001 
 1.144061516006653E-001  1.172319835452014E-001  1.201276135387672E-001  1.230947655931762E-001 
 1.261352063033270E-001  1.292507458990191E-001  1.324432393227249E-001  1.357145873339972E-001 
 1.390667376411455E-001  1.425016860608820E-001  1.460214777065866E-001  1.496282082059393E-001 
 1.533240249486253E-001  1.571111283648575E-001  1.609917732354698E-001  1.649682700343842E-001 
 1.690429863042352E-001  1.732183480659482E-001  1.774968412631771E-001  1.818810132423787E-001 
 1.863734742694636E-001  1.909768990839203E-001  1.956940284912930E-001  2.005276709950292E-001 
 2.054807044686065E-001  2.105560778689799E-001  2.157568129923448E-001  2.210860062732547E-001 
 2.265468306282036E-001  2.321425373447216E-001  2.378764580171348E-001  2.437520065301589E-001 
 2.497726810914518E-001  2.559420663144114E-001  2.622638353523810E-001  2.687417520855909E-001 
 2.753796733620859E-001  2.821815512941450E-001  2.891514356111134E-001  2.962934760706974E-001 
 3.036119249296477E-001  3.111111394754186E-001  3.187955846204616E-001  3.266698355605688E-001 
 3.347385804989249E-001  3.430066234372344E-001  3.514788870361453E-001  3.601604155459436E-001 
 3.690563778099110E-001  3.781720703418336E-001  3.875129204792729E-001  3.970844896151109E-001 
 4.068924765085906E-001  4.169427206783637E-001  4.272412058791093E-001  4.377940636643317E-001 
 4.486075770368516E-001  4.596881841896511E-001  4.710424823391439E-001  4.826772316529232E-001 
 4.945993592747427E-001  5.068159634488288E-001  5.193343177460155E-001  5.321618753943319E-001 
 5.453062737165875E-001  5.587753386773869E-001  5.725770895427040E-001  5.867197436544027E-001 
 6.012117213226825E-001  6.160616508393529E-001  6.312783736150827E-001  6.468709494433826E-001 
 6.628486618946160E-001  6.792210238434263E-001  6.959977831323415E-001  7.131889283757264E-001 
 7.308046949065963E-001  7.488555708708055E-001  7.673523034712963E-001  7.863059053670420E-001 
 8.057276612296139E-001  8.256291344619826E-001  8.460221740831902E-001  8.669189217830414E-001 
 8.883318191510812E-001  9.102736150841334E-001  9.327573733766894E-001  9.557964804991051E-001 
 9.794046535674332E-001  1.003595948510553E+000  1.028384768438770E+000  1.053785872219207E+000 
 1.079814383263006E+000  1.106485798529597E+000  1.133815997753289E+000  1.161821252897798E+000 
 1.190518237844358E+000  1.219924038319112E+000  1.250056162065597E+000  1.280932549268619E+000 
 1.312571583235568E+000  1.344992101341480E+000  1.378213406244615E+000  1.412255277378849E+000 
 1.447137982730114E+000  1.482882290903552E+000  1.519509483488869E+000  1.557041367731047E+000 
 1.595500289513991E+000  1.634909146665001E+000  1.675291402587605E+000  1.716671100231540E+000 
 1.759072876407262E+000  1.802521976454500E+000  1.847044269272931E+000  1.892666262723968E+000 
 1.939415119413248E+000
    </PP_RAB>
  </PP_MESH>
  <PP_LOCAL type="real" size="565" columns="4">
-5.308930230453000E+000 -5.308930318503600E+000 -5.308930404424600E+000 -5.308930488266400E+000 
-5.308930570079200E+000 -5.308930649911200E+000 -5.308930727809800E+000 -5.308930803821200E+000 