<UPF version="2.0.1">
  <PP_INFO>
    Generated using FHI98PP, converted with fhi2upf.x v.5.0.2
    Author: unknown
    Generation date: unknown
    Pseudopotential type: SL
    Element:  W
    Functional: PBE

    Suggested minimum cutoff for wavefunctions:   0. Ry
    Suggested minimum cutoff for charge density:   0. Ry
    The Pseudo was generated with a Non-Relativistic Calculation
    L component and cutoff radius for Local Potential:  1   0.0000

    Valence configuration: 
    nl pn  l   occ       Rcut    Rcut US       E pseu
    6s  6  0  2.00      0.000      0.000     0.000000
    6p  6  1  0.00      0.000      0.000     0.000000
    5d  5  2  4.10      0.000      0.000     0.000000
    5f  5  3  0.00      0.000      0.000     0.000000

    Generation configuration: not available.
    Comment:
    tungsten, fhi98PP : Trouiller-Martins-type, GGA Perdew/Burke/Ernzerhof (1996), l
  </PP_INFO>
  <!--                               -->
  <!-- END OF HUMAN READABLE SECTION -->
  <!--                               -->
  <PP_HEADER generated="Generated using FHI98PP, converted with fhi2upf.x v.5.0.2"
             author="unknown"
             date="unknown"
             comment="tungsten, fhi98PP : Trouiller-Martins-type, GGA Perdew/Burke/Ernzerhof (1996), l"
             element=" W"
             pseudo_type="SL"
             relativistic="no"
             is_ultrasoft="F"
             is_paw="F"
             is_coulomb="F"
             has_so="F"
             has_wfc="F"
             has_gipaw="F"
             paw_as_gipaw="F"
             core_correction="F"
             functional="PBE"
             z_valence="6.100000000000000E+000"
             total_psenergy="0.000000000000000E+000"
             wfc_cutoff="0.000000000000000E+000"
             rho_cutoff="0.000000000000000E+000"
             l_max="3"
             l_max_rho="0"
             l_local="1"
             mesh_size="565"
             number_of_wfc="4"
             number_of_proj="3"/>
  <PP_MESH dx="2.439988682353512E-002" mesh="565" xmin="-5.075173815233829E+000" rmax="7.991366152425000E+001"
zmesh="7.409999999999999E+001">
    <PP_R type="real" size="565" columns="4">
 8.434547908232099E-005  8.642881241565501E-005  8.856360408232100E-005  9.075112510315499E-005 
 9.299267789320200E-005  9.528959703716500E-005  9.764325008398201E-005  1.000550383610600E-004 
 1.025263978085700E-004  1.050587998344500E-004  1.076537521903600E-004  1.103127998694600E-004 
 1.130375260262400E-004  1.158295529190800E-004  1.186905428761800E-004  1.216221992852300E-004 
 1.246262676075700E-004  1.277045364174800E-004  1.308588384669900E-004  1.340910517771200E-004 
 1.374031007560200E-004  1.407969573446900E-004  1.442746421911100E-004  1.478382258532300E-004 
 1.514898300318000E-004  1.552316288335900E-004  1.590658500657800E-004  1.629947765624000E-004 
 1.670207475434900E-004  1.711461600078200E-004  1.753734701600100E-004  1.797051948729600E-004 
 1.841439131863300E-004  1.886922678420300E-004  1.933529668577300E-004  1.981287851391100E-004 
 2.030225661320500E-004  2.080372235155100E-004  2.131757429363400E-004  2.184411837868700E-004 
 2.238366810264100E-004  2.293654470477600E-004  2.350307735898400E-004  2.408360336975100E-004 
 2.467846837298300E-004  2.528802654179600E-004  2.591264079737800E-004  2.655268302507400E-004 
 2.720853429579300E-004  2.788058509289900E-004  2.856923554469400E-004  2.927489566264800E-004 
 2.999798558551500E-004  3.073893582947700E-004  3.149818754446500E-004  3.227619277681400E-004 
 3.307341473840100E-004  3.389032808243900E-004  3.472741918607600E-004  3.558518643997200E-004 
 3.646414054503900E-004  3.736480481650200E-004  3.828771549546900E-004  3.923342206820700E-004 
 4.020248759329200E-004  4.119548903684600E-004  4.221301761605600E-004  4.325567915117300E-004 
 4.432409442620700E-004  4.541889955853400E-004  4.654074637763000E-004  4.769030281315700E-004 
 4.886825329264199E-004  5.007529914897100E-004  5.131215903795000E-004  5.257956936618800E-004 
 5.387828472953200E-004  5.520907836235200E-004  5.657274259790200E-004  5.797008934007000E-004 
 5.940195054677000E-004  6.086917872527500E-004  6.237264743978900E-004  6.391325183155200E-004 
 6.549190915179200E-004  6.710955930784100E-004  6.876716542274400E-004  7.046571440868600E-004 
 7.220621755458100E-004  7.398971112817900E-004  7.581725699304500E-004  7.768994324077300E-004 
 7.960888483882000E-004  8.157522429433900E-004  8.359013233440900E-004  8.565480860306900E-004 
 8.777048237556500E-004  8.993841329024100E-004  9.215989209851000E-004  9.443624143334400E-004 
 9.676881659674700E-004  9.915900636668700E-004  1.016082338239400E-003  1.041179571994000E-003 
 1.066896707422200E-003  1.093249056095500E-003  1.120252307781100E-003  1.147922539783300E-003 
 1.176276226515900E-003  1.205330249310900E-003  1.235101906468900E-003  1.265608923558600E-003 
 1.296869463970500E-003  1.328902139730600E-003  1.361726022582000E-003  1.395360655339700E-003 
 1.429826063526600E-003  1.465142767295700E-003  1.501331793647900E-003  1.538414688951000E-003 
 1.576413531768100E-003  1.615350946002800E-003  1.655250114369100E-003  1.696134792194000E-003 
 1.738029321561200E-003  1.780958645803700E-003  1.824948324355100E-003  1.870024547966700E-003 
 1.916214154301400E-003  1.963544643912700E-003  2.012044196617300E-003  2.061741688273800E-003 
 2.112666707974100E-003  2.164849575661100E-003  2.218321360179900E-003  2.273113897776400E-003 
 2.329259811051400E-003  2.386792528384400E-003  2.445746303835500E-003  2.506156237540200E-003 
 2.568058296607500E-003  2.631489336533700E-003  2.696487123146100E-003  2.763090355087800E-003 
 2.831338686858400E-003  2.901272752423800E-003  2.972934189408700E-003  3.046365663887100E-003 
 3.121610895785100E-003  3.198714684911000E-003  3.277722937628300E-003  3.358682694187700E-003 
 3.441642156734200E-003  3.526650718005500E-003  3.613758990740200E-003  3.703018837811500E-003 
 3.794483403105500E-003  3.888207143162200E-003  3.984245859598300E-003  4.082656732330400E-003 
 4.183498353618900E-003  4.286830762953300E-003  4.392715482798300E-003  4.501215555223400E-003 
 4.612395579437400E-003  4.726321750249500E-003  4.843061897480700E-003  4.962685526348400E-003 
 5.085263858849200E-003  5.210869876162800E-003  5.339578362104000E-003  5.471465947648000E-003 
 5.606611156554900E-003  5.745094452121800E-003  5.886998285089200E-003  6.032407142730900E-003 
 6.181407599156400E-003  6.334088366855500E-003  6.490540349516900E-003  6.650856696149900E-003 
 6.815132856544800E-003  6.983466638101500E-003  7.155958264062600E-003  7.332710433184900E-003 
 7.513828380884600E-003  7.699419941892500E-003  7.889595614457200E-003  8.084468626134300E-003 
 8.284155001199800E-003  8.488773629729499E-003  8.698446338383800E-003  8.913297962941800E-003 
 9.133456422626500E-003  9.359052796265400E-003  9.590221400333099E-003  9.827099868921401E-003 
 1.006982923568400E-002  1.031855401780500E-002  1.057342230204500E-002  1.083458583290500E-002 
 1.110220010297800E-002  1.137642444552200E-002  1.165742212932600E-002  1.194536045592000E-002 
 1.224041085918200E-002  1.254274900740300E-002  1.285255490788600E-002  1.317001301411100E-002 
 1.349531233556000E-002  1.382864655024800E-002  1.417021412003900E-002  1.452021840880400E-002 
 1.487886780350200E-002  1.524637583824800E-002  1.562296132145300E-002  1.600884846609300E-002 
 1.640426702320500E-002  1.680945241867800E-002  1.722464589342000E-002  1.765009464698700E-002 
 1.808605198476800E-002  1.853277746879100E-002  1.899053707227100E-002  1.945960333795600E-002 
 1.994025554040300E-002  2.043277985225100E-002  2.093746951460200E-002  2.145462501161200E-002 
 2.198455424939900E-002  2.252757273935900E-002  2.308400378602200E-002  2.365417867953600E-002 
 2.423843689292100E-002  2.483712628417600E-002  2.545060330339500E-002  2.607923320498900E-002 
 2.672339026515200E-002  2.738345800470200E-002  2.805982941741800E-002  2.875290720402800E-002 
 2.946310401196700E-002  3.019084268106300E-002  3.093655649528500E-002  3.170068944071900E-002 
 3.248369646990500E-002  3.328604377271100E-002  3.410820905389700E-002  3.495068181752800E-002 
 3.581396365842100E-002  3.669856856078400E-002  3.760502320423600E-002  3.853386727738000E-002 
 3.948565379913200E-002  4.046094944797000E-002  4.146033489933500E-002  4.248440517134900E-002 
 4.353376997908100E-002  4.460905409756400E-002  4.571089773377400E-002  4.683995690779800E-002 
 4.799690384342100E-002  4.918242736835300E-002  5.039723332435200E-002  5.164204498746300E-002 
 5.291760349865300E-002  5.422466830507000E-002  5.556401761220500E-002  5.693644884722700E-002 
 5.834277913375300E-002  5.978384577835700E-002  6.126050676908300E-002  6.277364128627901E-002 
 6.432415022604999E-002  6.591295673663300E-002  6.754100676802800E-002  6.920926963519899E-002 
 7.091873859518801E-002  7.267043143848900E-002  7.446539109502000E-002  7.630468625506701E-002 
 7.818941200556700E-002  8.012069048210400E-002  8.209967153701200E-002  8.412753342397700E-002 
 8.620548349954900E-002  8.833475894198800E-002  9.051662748785499E-002  9.275238818680499E-002 
 9.504337217501900E-002  9.739094346774201E-002  9.979649977139500E-002  1.022614733157500E-001 
 1.047873317066500E-001  1.073755787998000E-001  1.100277555961600E-001  1.127454411593800E-001 
 1.155302535560200E-001  1.183838508188500E-001  1.213079319340800E-001  1.243042378528500E-001 
 1.273745525278100E-001  1.305207039752500E-001  1.337445653634400E-001  1.370480561279200E-001 
 1.404331431142800E-001  1.439018417492000E-001  1.474562172404000E-001  1.510983858062400E-001 
 1.548305159356600E-001  1.586548296792700E-001  1.625736039723500E-001  1.665891719904600E-001 
 1.707039245386300E-001  1.749203114747300E-001  1.792408431681600E-001  1.836680919944100E-001 
 1.882046938666700E-001  1.928533498051800E-001  1.976168275453700E-001  2.024979631857400E-001 
 2.074996628764300E-001  2.126249045494700E-001  2.178767396918500E-001  2.232582951622300E-001 
 2.287727750527400E-001  2.344234625965400E-001  2.402137221226800E-001  2.461470010591100E-001 
 2.522268319852700E-001  2.584568347353000E-001  2.648407185532700E-001  2.713822843015300E-001 
 2.780854267237800E-001  2.849541367638600E-001  2.919925039419200E-001  2.992047187892900E-001 
 3.065950753433900E-001  3.141679737043700E-001  3.219279226548600E-001  3.298795423444400E-001 
 3.380275670403500E-001  3.463768479462400E-001  3.549323560905200E-001  3.636991852859500E-001 
 3.726825551625200E-001  3.818878142750300E-001  3.913204432876200E-001  4.009860582368300E-001 
 4.108904138752800E-001  4.210394070980000E-001  4.314390804533200E-001  4.420956257405100E-001 
 4.530153876963000E-001  4.642048677724000E-001  4.756707280063800E-001  4.874197949881400E-001 
 4.994590639243500E-001  5.117957028032800E-001  5.244370566625201E-001  5.373906519620800E-001 
 5.506642010655500E-001  5.642656068318600E-001  5.782029673206101E-001  5.924845806134300E-001 
 6.071189497545800E-001  6.221147878135200E-001  6.374810230725100E-001  6.532268043424000E-001 
 6.693615064096600E-001  6.858947356179800E-001  7.028363355877399E-001  7.201963930767600E-001 
 7.379852439857600E-001  7.562134795122100E-001  7.748919524561600E-001  7.940317836818200E-001 
 8.136443687387700E-001  8.337413846466100E-001  8.543347968473800E-001  8.754368663295100E-001 
 8.970601569278500E-001  9.192175428039699E-001  9.419222161112299E-001  9.651876948491800E-001 
 9.890278309119500E-001  1.013456818335500E+000  1.038489201748400E+000  1.064139885031500E+000 
 1.090424140191800E+000  1.117357616454600E+000  1.144956349581000E+000  1.173236771415600E+000 
 1.202215719669600E+000  1.231910447945400E+000  1.262338636009700E+000  1.293518400319100E+000 
 1.325468304807000E+000  1.358207371935800E+000  1.391755094022600E+000  1.426131444844900E+000 
 1.461356891532600E+000  1.497452406753500E+000  1.534439481200300E+000  1.572340136385900E+000 
 1.611176937754600E+000  1.650973008117200E+000  1.691752041417700E+000  1.733538316840700E+000 
 1.776356713266700E+000  1.820232724084300E+000  1.865192472369200E+000  1.911262726436700E+000 
 1.958470915779700E+000  2.006845147399500E+000  2.056414222540300E+000  2.107207653837000E+000 
 2.159255682886800E+000  2.212589298254100E+000  2.267240253921000E+000  2.323241088192800E+000 
 2.380625143071200E+000  2.439426584105000E+000  2.499680420732400E+000  2.561422527124500E+000 
 2.624689663544500E+000  2.689519498234000E+000  2.755950629840400E+000  2.824022610397500E+000 
 2.893775968874300E+000  2.965252235305500E+000  3.038493965517500E+000  3.113544766465800E+000 
 3.190449322197500E+000  3.269253420455800E+000  3.350003979941100E+000  3.432749078245600E+000 
 3.517537980478300E+000  3.604421168596100E+000  3.693450371460400E+000  3.784678595635500E+000 
 3.878160156947700E+000  3.973950712824300E+000  4.072107295431000E+000  4.172688345628200E+000 
 4.275753747765200E+000  4.381364865335000E+000  4.489584577508800E+000  4.600477316573200E+000 
 4.714109106292600E+000  4.830547601218000E+000  4.949862126968100E+000  5.072123721504200E+000 
 5.197405177425400E+000  5.325781085307800E+000  5.457327878114900E+000  5.592123876704300E+000 
 5.730249336458900E+000  5.871786495069400E+000  6.016819621497700E+000  6.165435066148600E+000 
 6.317721312282500E+000  6.473769028695900E+000  6.633671123704700E+000  6.797522800460200E+000 
 6.965421613631600E+000  7.137467527488300E+000  7.313762975417200E+000  7.494412920910000E+000 
 7.679524920056500E+000  7.869209185581900E+000  8.063578652465800E+000  8.262749045181700E+000 
 8.466838946597701E+000  8.675969868578600E+000  8.890266324332501E+000  9.109855902543501E+000 
 9.334869343336299E+000  9.565440616116801E+000  9.801706999334799E+000  1.004380916221800E+001 
 1.029189124852500E+001  1.054610096236400E+001  1.080658965613400E+001  1.107351242064100E+001 
 1.134702817743000E+001  1.162729977341300E+001  1.191449407781600E+001  1.220878208153800E+001 
 1.251033899895200E+001  1.281934437222700E+001  1.313598217822100E+001  1.346044093802300E+001 
 1.379291382919200E+001  1.413359880077300E+001  1.448269869115200E+001  1.484042134882300E+001 
 1.520697975613900E+001  1.558259215611600E+001  1.596748218237200E+001  1.636187899227600E+001 
 1.676601740338600E+001  1.718013803324900E+001  1.760448744267100E+001  1.803931828250500E+001 
 1.848488944408200E+001  1.894146621335100E+001  1.940932042882100E+001  1.988873064341300E+001 
 2.037998229030500E+001  2.088336785287600E+001  2.139918703884200E+001  2.192774695870100E+001 
 2.246936230858100E+001  2.302435555760300E+001  2.359305713987600E+001  2.417580565123100E+001 
 2.477294805081600E+001  2.538483986767100E+001  2.601184541240300E+001  2.665433799408900E+001 
 2.731270014254300E+001  2.798732383606400E+001  2.867861073481500E+001  2.938697241996500E+001 
 3.011283063873800E+001  3.085661755551500E+001  3.161877600913600E+001  3.239975977656100E+001 
 3.320003384304300E+001  3.402007467896600E+001  3.486037052353600E+001  3.572142167546800E+001 
 3.660374079085200E+001  3.750785318838600E+001  3.843429716213900E+001  3.938362430204400E+001 
 4.035639982230400E+001  4.135320289791500E+001  4.237462700949300E+001  4.342128029662800E+001 
 4.449378591995500E+001  4.559278243217700E+001  4.671892415825200E+001  4.787288158496100E+001 
 4.905534176011000E+001  5.026700870158400E+001  5.150860381651300E+001  5.278086633078100E+001 
 5.408455372915200E+001  5.542044220626200E+001  5.678932712875600E+001  5.819202350883700E+001 
 5.962936648950500E+001  6.110221184179600E+001  6.261143647428800E+001  6.415793895520299E+001 
 6.574264004739599E+001  6.736648325656699E+001  6.903043539300400E+001  7.073548714721100E+001 
 7.248265367974800E+001  7.427297522563700E+001  7.610751771371100E+001  7.798737340123900E+001 
 7.991366152425000E+001
    </PP_R>
    <PP_RAB type="real" size="565" columns="4">
 2.058020143685481E-006  2.108853241234529E-006  2.160941916293005E-006  2.214317181625459E-006 
 2.269010816011585E-006  2.325055383167093E-006  2.382484251131297E-006  2.441331612134329E-006 
 2.501632502953847E-006  2.563422825777010E-006  2.626739369573680E-006  2.691619832002103E-006 
 2.758102841852661E-006  2.826227982046224E-006  2.896035813202734E-006  2.967567897789046E-006 
 3.040866824864309E-006  3.115976235438531E-006  3.192940848453820E-006  3.271806487410515E-006 
 3.352620107649681E-006  3.435429824308538E-006  3.520284940969109E-006  3.607235979011035E-006 
 3.696334707692492E-006  3.787634174972606E-006  3.881188739094438E-006  3.977054100949954E-006 
 4.075287337243387E-006  4.175946934473440E-006  4.279092823754857E-006  4.384786416501547E-006 
 4.493090640989328E-006  4.604069979821708E-006  4.717790508323348E-006  4.834319933878791E-006 
 4.953727636245694E-006  5.076084708860923E-006  5.201464001169712E-006  5.329940161998662E-006 
 5.461589684000134E-006  5.596490949194881E-006  5.734724275640002E-006  5.876371965248334E-006 
 6.021518352789761E-006  6.170249856103746E-006  6.322655027549420E-006  6.478824606730077E-006 
 6.638851574516229E-006  6.802831208406760E-006  6.970861139254502E-006  7.143041409394104E-006 
 7.319474532206039E-006  7.500265553151475E-006  7.685522112314295E-006  7.875354508488632E-006 
 8.069875764848227E-006  8.269201696239856E-006  8.473450978137164E-006  8.682745217297133E-006 
 8.897209024164298E-006  9.116970087061286E-006  9.342159248211553E-006  9.572910581642358E-006 
 9.809361473008996E-006  1.005165270139224E-005  1.029992852311661E-005  1.055433675763769E-005 
 1.081502887555134E-005  1.108216008877739E-005  1.135588944297024E-005  1.163637991221149E-005 
 1.192379849604312E-005  1.221831631889557E-005  1.252010873197215E-005  1.282935541765201E-005 
 1.314624049646781E-005  1.347095263673070E-005  1.380368516685793E-005  1.414463619047928E-005 
 1.449400870438418E-005  1.485201071938242E-005  1.521885538415109E-005  1.559476111213967E-005 
 1.597995171160968E-005  1.637465651888638E-005  1.677911053490271E-005  1.719355456511486E-005 
 1.761823536287331E-005  1.805340577633624E-005  1.849932489901175E-005  1.895625822401728E-005 
 1.942447780215049E-005  1.990426240386364E-005  2.039589768523903E-005  2.089967635806446E-005 
 2.141589836410870E-005  2.194487105370207E-005  2.248690936872852E-005  2.304233603013631E-005 
 2.361148173008053E-005  2.419468532881361E-005  2.479229405643429E-005  2.540466371963034E-005 
 2.603215891350394E-005  2.667515323866679E-005  2.733402952366287E-005  2.800918005289751E-005 
 2.870100680020292E-005  2.940992166816932E-005  3.013634673337362E-005  3.088071449768595E-005 
 3.164346814577885E-005  3.242506180898029E-005  3.322596083566343E-005  3.404664206830248E-005 
 3.488759412738977E-005  3.574931770233613E-005  3.663232584958374E-005  3.753714429806838E-005 
 3.846431176223092E-005  3.941438026275871E-005  4.038791545524960E-005  4.138549696699385E-005 
 4.240771874207881E-005  4.345518939500665E-005  4.452853257306450E-005  4.562838732761990E-005 
 4.675540849461022E-005  4.791026708442844E-005  4.909365068141275E-005  5.030626385324495E-005 
 5.154882857041856E-005  5.282208463610886E-005  5.412679012662004E-005  5.546372184274893E-005 
 5.683367577226295E-005  5.823746756383859E-005  5.967593301266553E-005  6.114992855807747E-005 
 6.266033179346338E-005  6.420804198876180E-005  6.579398062588464E-005  6.741909194734378E-005 
 6.908434351844149E-005  7.079072680334694E-005  7.253925775539040E-005  7.433097742194866E-005 
 7.616695256427052E-005  7.804827629260820E-005  7.997606871703557E-005  8.195147761434589E-005 
 8.397567911142178E-005  8.604987838547307E-005  8.817531038159337E-005  9.035324054801915E-005 
 9.258496558955657E-005  9.487181423961849E-005  9.721514805133689E-005  9.961636220820546E-005 
 1.020768863547467E-004  1.045981854477092E-004  1.071817606282689E-004  1.098291501157867E-004 
 1.125419301236462E-004  1.153217157977002E-004  1.181701621779043E-004  1.210889651836968E-004 
 1.240798626237339E-004  1.271446352305408E-004  1.302851077207346E-004  1.335031498814375E-004 
 1.368006776835089E-004  1.401796544222914E-004  1.436420918865218E-004  1.471900515561188E-004 
 1.508256458295561E-004  1.545510392815446E-004  1.583684499518004E-004  1.622801506656082E-004 
 1.662884703870487E-004  1.703957956056099E-004  1.746045717570683E-004  1.789173046794667E-004 
 1.833365621050504E-004  1.878649751890463E-004  1.925052400762147E-004  1.972601195060974E-004 
 2.021324444578976E-004  2.071251158360092E-004  2.122411061971582E-004  2.174834615202260E-004 
 2.228553030197765E-004  2.283598290043656E-004  2.340003167807721E-004  2.397801246052590E-004 
 2.457026936830148E-004  2.517715502169756E-004  2.579903075073402E-004  2.643626681027590E-004 
 2.708924260049031E-004  2.775834689272351E-004  2.844397806097282E-004  2.914654431907798E-004 
 2.986646396376111E-004  3.060416562366407E-004  3.136008851456892E-004  3.213468270087930E-004 
 3.292840936359214E-004  3.374174107487205E-004  3.457516207942109E-004  3.542916858278288E-004 
 3.630426904677893E-004  3.720098449223316E-004  3.811984880919199E-004  3.906140907477930E-004 
 4.002622587892513E-004  4.101487365813419E-004  4.202794103749170E-004  4.306603118111658E-004 
 4.412976215129118E-004  4.521976727642620E-004  4.633669552815603E-004  4.748121190770126E-004 
 4.865399784182023E-004  4.985575158851331E-004  5.108718865275056E-004  5.234904221247187E-004 
 5.364206355512037E-004  5.496702252493146E-004  5.632470798129929E-004  5.771592826843557E-004 
 5.914151169666706E-004  6.060230703557437E-004  6.209918401935269E-004  6.363303386463106E-004 
 6.520476980108689E-004  6.681532761517555E-004  6.846566620727005E-004  7.015676816258908E-004 
 7.188964033620383E-004  7.366531445250908E-004  7.548484771948543E-004  7.734932345815783E-004 
 7.925985174757493E-004  8.121757008573843E-004  8.322364406685626E-004  8.527926807530699E-004 
 8.738566599676722E-004  8.954409194688737E-004  9.175583101797703E-004  9.402220004411954E-004 
 9.634454838521102E-004  9.872425873032437E-004  1.011627479209637E-003  1.036614677946126E-003 
 1.062219060491387E-003  1.088455871285517E-003  1.115340731306274E-003  1.142889647369533E-003 
 1.171119021659570E-003  1.200045661494549E-003  1.229686789333481E-003  1.260060053030006E-003 
 1.291183536339839E-003  1.323075769687440E-003  1.355755741198714E-003  1.389242908006335E-003 
 1.423557207834079E-003  1.458719070867589E-003  1.494749431918032E-003  1.531669742886399E-003 
 1.569501985535691E-003  1.608268684578412E-003  1.647992921087503E-003  1.688698346238381E-003 
 1.730409195390459E-003  1.773150302516600E-003  1.816947114988768E-003  1.861825708728991E-003 
 1.907812803734593E-003  1.954935779986825E-003  2.003222693752500E-003  2.052702294288207E-003 
 2.103404040957120E-003  2.155358120768764E-003  2.208595466351750E-003  2.263147774370638E-003 
 2.319047524397590E-003  2.376327998250212E-003  2.435023299806986E-003  2.495168375312256E-003 
 2.556799034182493E-003  2.619951970326697E-003  2.684664783993887E-003  2.750976004158410E-003 
 2.818925111461203E-003  2.888552561714205E-003  2.959899809988654E-003  3.033009335295330E-003 
 3.107924665876993E-003  3.184690405124230E-003  3.263352258130831E-003  3.343957058906737E-003 
 3.426552798261742E-003  3.511188652378741E-003  3.597915012092368E-003  3.686783512891101E-003 
 3.777847065659654E-003  3.871159888181428E-003  3.966777537419559E-003  4.064756942593651E-003 
 4.165156439075852E-003  4.268035803120923E-003  4.373456287458112E-003  4.481480657758241E-003 
 4.592173230004821E-003  4.705599908786021E-003  4.821828226533085E-003  4.940927383728437E-003 
 5.062968290106584E-003  5.188023606872025E-003  5.316167789961961E-003  5.447477134373810E-003 
 5.582029819592914E-003  5.719905956136794E-003  5.861187633253506E-003  6.005958967794863E-003 
 6.154306154299396E-003  6.306317516310440E-003  6.462083558963505E-003  6.621697022869763E-003 
 6.785252939334701E-003  6.952848686936332E-003  7.124584049503480E-003  7.300561275526327E-003 
 7.480885139031937E-003  7.665663001965985E-003  7.855004878114351E-003  8.049023498603897E-003 
 8.247834379019469E-003  8.451555888181089E-003  8.660309318619353E-003  8.874218958789109E-003 
 9.093412167071373E-003  9.318019447597931E-003  9.548174527953521E-003  9.784014438794113E-003 
 1.002567959543234E-002  1.027331388143953E-002  1.052706473431107E-002  1.078708323324838E-002 
 1.105352418910960E-002  1.132654623658064E-002  1.160631192862423E-002  1.189298783326130E-002 
 1.218674463274293E-002  1.248775722517165E-002  1.279620482863336E-002  1.311227108790050E-002 
 1.343614418377181E-002  1.376801694511075E-002  1.410808696365506E-002  1.445655671165736E-002 
 1.481363366243526E-002  1.517953041389745E-002  1.555446481512062E-002  1.593866009605408E-002 
 1.633234500042668E-002  1.673575392193725E-002  1.714912704380900E-002  1.757271048179115E-002 
 1.800675643069150E-002  1.845152331452962E-002  1.890727594039846E-002  1.937428565612613E-002 
 1.985283051183266E-002  2.034319542547474E-002  2.084567235248394E-002  2.136056045959029E-002 
 2.188816630294219E-002  2.242880401062491E-002  2.298279546968740E-002  2.355047051778874E-002 
 2.413216713957801E-002  2.472823166792619E-002  2.533901899012429E-002  2.596489275917827E-002 
 2.660622561033051E-002  2.726339938290720E-002  2.793680534766431E-002  2.862684443975038E-002 
 2.933392749741306E-002  3.005847550659821E-002  3.080091985161237E-002  3.156170257194623E-002 
 3.234127662547374E-002  3.314010615812459E-002  3.395866678022991E-002  3.479744584970017E-002 
 3.565694276218852E-002  3.653766924841567E-002  3.744014967885126E-002  3.836492137591773E-002 
 3.931253493390213E-002  4.028355454677101E-002  4.127855834407638E-002  4.229813873517464E-002 
 4.334290276193430E-002  4.441347246015194E-002  4.551048522991813E-002  4.663459421509664E-002 
 4.778646869220986E-002  4.896679446890845E-002  5.017627429229128E-002  5.141562826730976E-002 
 5.268559428551295E-002  5.398692846436503E-002  5.532040559743542E-002  5.668681961569089E-002 
 5.808698406019937E-002  5.952173256648487E-002  6.099191936087721E-002  6.249841976909111E-002 
 6.404213073738826E-002  6.562397136660056E-002  6.724488345935609E-002  6.890583208080321E-002 
 7.060780613319860E-002  7.235181894468873E-002  7.413890887262142E-002  7.597013992177559E-002 
 7.784660237784333E-002  7.976941345657658E-002  8.173971796895504E-002  8.375868900278714E-002 
 8.582752862115679E-002  8.794746857809903E-002  9.011977105197751E-002  9.234572939696203E-002 
 9.462666891306706E-002  9.696394763521962E-002  9.935895714180808E-002  1.018131233832121E-001 
 1.043279075307770E-001  1.069048068467872E-001  1.095453555759034E-001  1.122511258586266E-001 
 1.150237286673357E-001  1.178648147654182E-001  1.207760756901244E-001  1.237592447596702E-001 
 1.268160981052352E-001  1.299484557284344E-001  1.331581825849266E-001  1.364471896947734E-001 
 1.398174352802344E-001  1.432709259316553E-001  1.468097178021693E-001  1.504359178318806E-001 
 1.541516850023288E-001  1.579592316218868E-001  1.618608246429477E-001  1.658587870116284E-001 
 1.699554990508164E-001  1.741533998773716E-001  1.784549888543411E-001  1.828628270790432E-001 
 1.873795389078962E-001  1.920078135189213E-001  1.967504065128393E-001  2.016101415537063E-001 
 2.065899120500832E-001  2.116926828777187E-001  2.169214921447986E-001  2.222794530007748E-001 
 2.277697554898933E-001  2.333956684504960E-001  2.391605414612211E-001  2.450678068353043E-001 
 2.511209816641415E-001  2.573236699112564E-001  2.636795645580549E-001  2.701924498026508E-001 
 2.768662033127560E-001  2.837047985345927E-001  2.907123070583898E-001  2.978929010427307E-001 
 3.052508556984864E-001  3.127905518342606E-001  3.205164784645667E-001  3.284332354826401E-001 
 3.365455363990572E-001  3.448582111481128E-001  3.533762089634690E-001  3.621046013248556E-001 
 3.710485849775813E-001  3.802134850265365E-001  3.896047581066903E-001  3.992279956319112E-001 
 4.090889271240385E-001  4.191934236239868E-001  4.295475011875176E-001  4.401573244668499E-001 
 4.510292103811598E-001  4.621696318775786E-001  4.735852217849605E-001  4.852827767630519E-001 
 4.972692613490921E-001  5.095518121044259E-001  5.221377418634044E-001  5.350345440874208E-001 
 5.482498973263822E-001  5.617916697903450E-001  5.756679240341716E-001  5.898869217578171E-001 
 6.044571287252253E-001  6.193872198047347E-001  6.346860841339244E-001  6.503628304120237E-001 
 6.664267923232007E-001  6.828875340935884E-001  6.997548561857053E-001  7.170388011334939E-001 
 7.347496595214880E-001  7.528979761116729E-001  7.714945561216258E-001  7.905504716578138E-001 
 8.100770683077849E-001  8.300859718949831E-001  8.505890954007780E-001  8.715986460571934E-001 
 8.931271326148047E-001  9.151873727903892E-001  9.377925008983087E-001  9.609559756705008E-001 
 9.846915882695503E-001  1.009013470499810E+000  1.033936103221143E+000  1.059474324970719E+000 
 1.085643340797502E+000  1.112458731315179E+000  1.139936461978670E+000  1.168092892589547E+000 
 1.196944787036520E+000  1.226509323276304E+000  1.256804103561226E+000  1.287847164919192E+000 
 1.319656989892713E+000  1.352252517543062E+000  1.385653154726359E+000  1.419878787648118E+000 
 1.454949793703020E+000  1.490887053607490E+000  1.527711963831586E+000  1.565446449338228E+000 
 1.604112976636870E+000  1.643734567159808E+000  1.684334810968650E+000  1.725937880799571E+000 
 1.768568546455342E+000  1.812252189552770E+000  1.857014818634743E+000  1.902883084655004E+000 
 1.949884296845993E+000
    </PP_RAB>
  </PP_MESH>
  <PP_LOCAL type="real" size="565" columns="4">
-4.322727536131800E+000 -4.322727620399000E+000 -4.322727702620800E+000 -4.322727782846000E+000 
-4.322727861121800E+000 -4.322727937494400E+000 -4.322728012009000E+000 -4.322728084709600E+000 