<UPF version="2.0.1">
  <PP_INFO>
    Generated using FHI98PP, converted with fhi2upf.x v.5.0.2
    Author: unknown
    Generation date: unknown
    Pseudopotential type: SL
    Element:  W
    Functional: PBE

    Suggested minimum cutoff for wavefunctions:   0. Ry
    Suggested minimum cutoff for charge density:   0. Ry
    The Pseudo was generated with a Non-Relativistic Calculation
    L component and cutoff radius for Local Potential:  1   0.0000

    Valence configuration: 
    nl pn  l   occ       Rcut    Rcut US       E pseu
    6s  6  0  2.00      0.000      0.000     0.000000
    6p  6  1  0.00      0.000      0.000     0.000000
    5d  5  2  4.05      0.000      0.000     0.000000
    5f  5  3  0.00      0.000      0.000     0.000000

    Generation configuration: not available.
    Comment:
    tungsten, fhi98PP : Trouiller-Martins-type, GGA Perdew/Burke/Ernzerhof (1996), l
  </PP_INFO>
  <!--                               -->
  <!-- END OF HUMAN READABLE SECTION -->
  <!--                               -->
  <PP_HEADER generated="Generated using FHI98PP, converted with fhi2upf.x v.5.0.2"
             author="unknown"
             date="unknown"
             comment="tungsten, fhi98PP : Trouiller-Martins-type, GGA Perdew/Burke/Ernzerhof (1996), l"
             element=" W"
             pseudo_type="SL"
             relativistic="no"
             is_ultrasoft="F"
             is_paw="F"
             is_coulomb="F"
             has_so="F"
             has_wfc="F"
             has_gipaw="F"
             paw_as_gipaw="F"
             core_correction="F"
             functional="PBE"
             z_valence="6.050000000000000E+000"
             total_psenergy="0.000000000000000E+000"
             wfc_cutoff="0.000000000000000E+000"
             rho_cutoff="0.000000000000000E+000"
             l_max="3"
             l_max_rho="0"
             l_local="1"
             mesh_size="565"
             number_of_wfc="4"
             number_of_proj="3"/>
  <PP_MESH dx="2.439988682353512E-002" mesh="565" xmin="-5.075173815233824E+000" rmax="7.996762078253801E+001"
zmesh="7.405000000000000E+001">
    <PP_R type="real" size="565" columns="4">
 8.440243079000700E-005  8.648717083052000E-005  8.862340395003399E-005  9.081240202760000E-005 
 9.305546835768100E-005  9.535393842611600E-005  9.770918070524100E-005  1.001225974686600E-004 
 1.025956256261400E-004  1.051297375791000E-004  1.077264420973100E-004  1.103872852171100E-004 
 1.131138511619700E-004  1.159077632856700E-004  1.187706850388300E-004  1.217043209592900E-004 
 1.247104176869800E-004  1.277907650038500E-004  1.309471968994500E-004  1.341815926628600E-004 
 1.374958780016300E-004  1.408920261882700E-004  1.443720592351300E-004  1.479380490982300E-004 
 1.515921189109600E-004  1.553364442480600E-004  1.591732544209900E-004  1.631048338051900E-004 
 1.671335232001700E-004  1.712617212232200E-004  1.754918857374300E-004  1.798265353151500E-004 
 1.842682507374300E-004  1.888196765306400E-004  1.934835225409500E-004  1.982625655477100E-004 
 2.031596509167400E-004  2.081776942943800E-004  2.133196833434600E-004  2.185886795220400E-004 
 2.239878199062300E-004  2.295203190579200E-004  2.351894709386500E-004  2.409986508708300E-004 
 2.469513175473400E-004  2.530510150907600E-004  2.593013751635000E-004  2.657061191300400E-004 
 2.722690602725500E-004  2.789941060612900E-004  2.858852604810000E-004  2.929466264148800E-004 
 3.001824080873300E-004  3.075969135670800E-004  3.151945573321900E-004  3.229798628983000E-004 
 3.309574655118900E-004  3.391321149100300E-004  3.475086781483100E-004  3.560921424985700E-004 
 3.648876184182800E-004  3.739003425932200E-004  3.831356810552700E-004  3.925991323773300E-004 
 4.022963309470500E-004  4.122330503214500E-004  4.224152066643900E-004  4.328488622690000E-004 
 4.435402291670400E-004  4.544956728274700E-004  4.657217159463000E-004  4.772250423301800E-004 
 4.890125008757300E-004  5.010911096473600E-004  5.134680600556500E-004  5.261507211390300E-004 
 5.391466439511600E-004  5.524635660567599E-004  5.661094161383600E-004  5.800923187169700E-004 
 5.944205989892800E-004  6.091027877843200E-004  6.241476266425899E-004  6.395640730206600E-004 
 6.553613056242700E-004  6.715487298731900E-004  6.881359835010600E-004  7.051329422935400E-004 
 7.225497259681900E-004  7.403967041996000E-004  7.586845027933300E-004  7.774240100123300E-004 
 7.966263830596300E-004  8.163030547212100E-004  8.364657401728199E-004  8.571264439550900E-004 
 8.782974671207800E-004  8.999914145586600E-004  9.222212024982600E-004  9.450000661999700E-004 
 9.683415678351100E-004  9.922596045606300E-004  1.016768416793300E-003  1.041882596688100E-003 
 1.067617096826300E-003  1.093987239117900E-003  1.121008723924100E-003  1.148697639405000E-003 
 1.177070471098300E-003  1.206144111734400E-003  1.235935871294300E-003  1.266463487315300E-003 
 1.297745135451900E-003  1.329799440297600E-003  1.362645486473000E-003  1.396302829988800E-003 
 1.430791509889600E-003  1.466132060183800E-003  1.502345522070400E-003  1.539453456465500E-003 
 1.577477956840200E-003  1.616441662374200E-003  1.656367771434800E-003  1.697280055389200E-003 
 1.739202872757400E-003  1.782161183714500E-003  1.826180564952200E-003  1.871287224906500E-003 
 1.917508019361700E-003  1.964870467440000E-003  2.013402767985700E-003  2.063133816355000E-003 
 2.114093221618900E-003  2.166311324192900E-003  2.219819213900500E-003  2.274648748483800E-003 
 2.330832572571400E-003  2.388404137113900E-003  2.447397719300600E-003  2.507848442967300E-003 
 2.569792299508600E-003  2.633266169306500E-003  2.698307843688400E-003  2.764956047427500E-003 
 2.833250461798900E-003  2.903231748205400E-003  2.974941572386000E-003  3.048422629224000E-003 
 3.123718668165800E-003  3.200874519269500E-003  3.279936119895500E-003  3.360950542056900E-003 
 3.443966020445700E-003  3.529031981150700E-003  3.616199071085100E-003  3.705519188140900E-003 
 3.797045512088000E-003  3.890832536236600E-003  3.986936099881600E-003  4.085413421548700E-003 
 4.186323133060900E-003  4.289725314447500E-003  4.395681529714400E-003  4.504254863498300E-003 
 4.615509958626700E-003  4.729513054604800E-003  4.846332027053600E-003  4.966036428121800E-003 
 5.088697527896400E-003  5.214388356835400E-003  5.343183749249300E-003  5.475160387855700E-003 
 5.610396849435800E-003  5.748973651616800E-003  5.890973300811800E-003  6.036480341341800E-003 
 6.185581405773000E-003  6.338365266495500E-003  6.494922888578000E-003  6.655347483925900E-003 
 6.819734566778800E-003  6.988182010578300E-003  7.160790106239600E-003  7.337661621863700E-003 
 7.518901863923700E-003  7.704618739962600E-003  7.894922822839700E-003  8.089927416563799E-003 
 8.289748623753000E-003  8.494505414759700E-003  8.704319698504199E-003  8.919316395057299E-003 
 9.139623510015200E-003  9.365372210712600E-003  9.596696904317199E-003  9.833735317853800E-003 
 1.007662858020500E-002  1.032552130613600E-002  1.058056168239700E-002  1.084190155595300E-002 
 1.110969652438500E-002  1.138410602853700E-002  1.166529344744200E-002  1.195342619559400E-002 
 1.224867582262500E-002  1.255121811544400E-002  1.286123320289500E-002  1.317890566300700E-002 
 1.350442463288300E-002  1.383798392131500E-002  1.417978212417200E-002  1.453002274263900E-002 
 1.488891430438200E-002  1.525667048770000E-002  1.563351024874600E-002  1.601965795189000E-002 
 1.641534350330200E-002  1.682080248783300E-002  1.723627630928300E-002  1.766201233412200E-002 
 1.809826403877500E-002  1.854529116053300E-002  1.900335985219800E-002  1.947274284054700E-002 
 1.995371958870900E-002  2.044657646255000E-002  2.095160690117500E-002  2.146911159163400E-002 
 2.199939864794700E-002  2.254278379455100E-002  2.309959055427700E-002  2.367015044096700E-002 
 2.425480315685900E-002  2.485389679483400E-002  2.546778804566600E-002  2.609684241039400E-002 
 2.674143441793100E-002  2.740194784805400E-002  2.807877595990100E-002  2.877232172611000E-002 
 2.948299807274500E-002  3.021122812514200E-002  3.095744545983300E-002  3.172209436269100E-002 
 3.250563009344900E-002  3.330851915675800E-002  3.413123957992900E-002  3.497428119755400E-002 
 3.583814594313300E-002  3.672334814792900E-002  3.763041484718200E-002  3.855988609390800E-002 
 3.951231528042700E-002  4.048826946785400E-002  4.148832972371000E-002  4.251309146788600E-002 
 4.356316482714200E-002  4.463917499837300E-002  4.574176262083300E-002  4.687158415756700E-002 
 4.802931228625900E-002  4.921563629973000E-002  5.043126251633300E-002  5.167691470048600E-002 
 5.295333449358800E-002  5.426128185558000E-002  5.560153551741300E-002  5.697489344469300E-002 
 5.838217331277700E-002  5.982421299360200E-002  6.130187105454400E-002  6.281602726959200E-002 
 6.436758314315100E-002  6.595746244678601E-002  6.758661176922200E-002  6.925600107992200E-002 
 7.096662430659600E-002  7.271949992696899E-002  7.451567157516500E-002  7.635620866307100E-002 
 7.824220701704900E-002  8.017478953036999E-002  8.215510683177100E-002  8.418433797051500E-002 
 8.626369111838700E-002  8.839440428901101E-002  9.057774607495001E-002  9.281501640300099E-002 
 9.510754730815500E-002  9.745670372666700E-002  9.986388430871500E-002  1.023305222511400E-001 
 1.048580861507400E-001  1.074480808786700E-001  1.101020484763700E-001  1.128215690737400E-001 
 1.156082618298600E-001  1.184637858970600E-001  1.213898414087100E-001  1.243881704915100E-001 
 1.274605583026500E-001  1.306088340927200E-001  1.338348722948100E-001  1.371405936405000E-001 
 1.405279663034200E-001  1.439990070711100E-001  1.475557825457700E-001  1.512004103746500E-001 
 1.549350605109000E-001  1.587619565055200E-001  1.626833768312100E-001  1.667016562389400E-001 
 1.708191871480400E-001  1.750384210706000E-001  1.793618700710400E-001  1.837921082617900E-001 
 1.883317733358600E-001  1.929835681372600E-001  1.977502622702500E-001  2.026346937483200E-001 
 2.076397706839000E-001  2.127684730198000E-001  2.180238543033900E-001  2.234090435046800E-001 
 2.289272468792400E-001  2.345817498771600E-001  2.403759190991300E-001  2.463132043008800E-001 
 2.523971404471100E-001  2.586313498161500E-001  2.650195441566100E-001  2.715655268972800E-001 
 2.782731954116400E-001  2.851465433383100E-001  2.921896629587700E-001  2.994067476338500E-001 
 3.068020943004000E-001  3.143801060296200E-001  3.221452946485500E-001  3.301022834263700E-001 
 3.382558098270100E-001  3.466107283297300E-001  3.551720133194800E-001  3.639447620484700E-001 
 3.729341976710600E-001  3.821456723535400E-001  3.915846704606700E-001  4.012568118210500E-001 
 4.111678550730300E-001  4.213237010933300E-001  4.317303965103400E-001  4.423941373041500E-001 
 4.533212724955600E-001  4.645183079262000E-001  4.759919101319800E-001  4.877489103122300E-001 
 4.997963083969500E-001  5.121412772143500E-001  5.247911667615500E-001  5.377535085805600E-001 
 5.510360202425000E-001  5.646466099424901E-001  5.785933812080700E-001  5.928846377239000E-001 
 6.075288882756800E-001  6.225348518160900E-001  6.379114626559500E-001  6.536678757835500E-001 
 6.698134723154100E-001  6.863578650816000E-001  7.033109043491100E-001  7.206826836865400E-001 
 7.384835459735900E-001  7.567240895591399E-001  7.754151745712500E-001  7.945679293831600E-001 
 8.141937572389299E-001  8.343043430427300E-001  8.549116603158800E-001  8.760279783256900E-001 
 8.976658693903300E-001  9.198382163642700E-001  9.425582203084700E-001  9.658394083500900E-001 
 9.896956417363300E-001  1.014141124087200E+000  1.039190409852200E+000  1.064858412975500E+000 
 1.091160415776000E+000  1.118112078045700E+000  1.145729446373400E+000  1.174028963698800E+000 
 1.203027479102200E+000  1.232742257836000E+000  1.263190991604600E+000  1.294391809097200E+000 
 1.326363286781900E+000  1.359124459965400E+000  1.392694834126600E+000  1.427094396529500E+000 
 1.462343628123800E+000  1.498463515738400E+000  1.535475564577200E+000  1.573401811022200E+000 
 1.612264835754500E+000  1.652087777197600E+000  1.692894345294400E+000  1.734708835623200E+000 
 1.777556143863100E+000  1.821461780616500E+000  1.866451886597700E+000  1.912553248196700E+000 
 1.959793313427100E+000  2.008200208268800E+000  2.057802753413000E+000  2.108630481422300E+000 
 2.160713654313400E+000  2.214083281575000E+000  2.268771138629900E+000  2.324809785754000E+000 
 2.382232587462200E+000  2.441073732372500E+000  2.501368253562100E+000  2.563152049425100E+000 
 2.626461905045900E+000  2.691335514100500E+000  2.757811501298800E+000  2.825929445380900E+000 
 2.895729902681800E+000  2.967254431278000E+000  3.040545615730600E+000  3.115647092439100E+000 
 3.192603575622400E+000  3.271460883940200E+000  3.352265967773600E+000  3.435066937177600E+000 
 3.519913090525800E+000  3.606854943861800E+000  3.695944260975200E+000  3.787234084221300E+000 
 3.880778766101600E+000  3.976634001624300E+000  4.074856861464400E+000  4.175505825942600E+000 
 4.278640819843400E+000  4.384323248093500E+000  4.492616032321400E+000  4.603583648319700E+000 
 4.717292164433200E+000  4.833809280894700E+000  4.953204370132800E+000  5.075548518075100E+000 
 5.200914566471600E+000  5.329377156263400E+000  5.461012772023100E+000  5.595899787492100E+000 
 5.734118512243100E+000  5.875751239495600E+000  6.020882295111100E+000  6.169598087800300E+000 
 6.321987160569000E+000  6.478140243435100E+000  6.638150307447900E+000  6.802112620041900E+000 
 6.970124801756900E+000  7.142286884360300E+000  7.318701370404000E+000  7.499473294253000E+000 
 7.684710284621000E+000  7.874522628651200E+000  8.069023337578800E+000  8.268328214017000E+000 
 8.472555920903300E+000  8.681828052149600E+000  8.896269205037701E+000  9.116007054402100E+000 
 9.341172428645800E+000  9.571899387633399E+000  9.808325302507900E+000  1.005059093748000E+001 
 1.029884053363600E+001  1.055322189481600E+001  1.081388647561800E+001  1.108098947156600E+001 
 1.135468991151400E+001  1.163515075232800E+001  1.192253897591100E+001  1.221702568861600E+001 
 1.251878622312500E+001  1.282800024283600E+001  1.314485184883400E+001  1.346952968950000E+001 
 1.380222707283100E+001  1.414314208153000E+001  1.449247769094300E+001  1.485044188991000E+001 
 1.521724780459000E+001  1.559311382536400E+001  1.597826373685000E+001  1.637292685115000E+001 
 1.677733814437400E+001  1.719173839654000E+001  1.761637433493400E+001  1.805149878100700E+001 
 1.849737080089800E+001  1.895425585968000E+001  1.942242597941400E+001  1.990215990110600E+001 
 2.039374325066300E+001  2.089746870895500E+001  2.141363618606600E+001  2.194255299986200E+001 
 2.248453405895800E+001  2.303990205021500E+001  2.360898763085500E+001  2.419212962533700E+001 
 2.478967522708300E+001  2.540198020519200E+001  2.602940911626000E+001  2.667233552143200E+001 
 2.733114220881100E+001  2.800622142136900E+001  2.869797509047600E+001  2.940681507521100E+001 
 3.013316340756900E+001  3.087745254373600E+001  3.164012562156600E+001  3.242163672441900E+001 
 3.322245115151200E+001  3.404304569495400E+001  3.488390892362000E+001  3.574554147403300E+001 
 3.662845634844200E+001  3.753317922024800E+001  3.846024874698800E+001  3.941021689103900E+001 
 4.038364924824700E+001  4.138112538467900E+001  4.240323918168100E+001  4.345059918946800E+001 
 4.452382898944800E+001  4.562356756548800E+001  4.675046968435500E+001  4.790520628555900E+001 
 4.908846488081200E+001  5.030094996336800E+001  5.154338342746300E+001  5.281650499812100E+001 
 5.412107267157500E+001  5.545786316656300E+001  5.682767238677700E+001  5.823131589473000E+001 
 5.966962939733000E+001  6.114346924344400E+001  6.265371293375700E+001  6.420125964322099E+001 
 6.578703075640900E+001  6.741197041609200E+001  6.907704608537000E+001  7.078324912367800E+001 
 7.253159537703300E+001  7.432312578284601E+001  7.615890698968200E+001  7.804003199232700E+001 
 7.996762078253801E+001
    </PP_R>
    <PP_RAB type="real" size="565" columns="4">
 2.059409758907427E-006  2.110277179952436E-006  2.162401026297264E-006  2.215812331646811E-006 
 2.270542896238470E-006  2.326625305775567E-006  2.384092950828221E-006  2.442980046713668E-006 
 2.503321653867595E-006  2.565153698717987E-006  2.628512995076473E-006  2.693437266054775E-006 
 2.759965166526264E-006  2.828136306139447E-006  2.897991272901188E-006  2.969571657341869E-006 
 3.042920077278104E-006  3.118080203186912E-006  3.195096784205748E-006  3.274015674775475E-006 
 3.354883861942364E-006  3.437749493332334E-006  3.522661905817880E-006  3.609671654891394E-006 
 3.698830544767302E-006  3.790191659223037E-006  3.883809393205917E-006  3.979739485218141E-006 
 4.078039050502829E-006  4.178766615050390E-006  4.281982150442048E-006  4.387747109558101E-006 
 4.496124463164083E-006  4.607178737404126E-006  4.720976052218086E-006  4.837584160707837E-006 
 4.957072489477359E-006  5.079512179967365E-006  5.204976130812774E-006  5.333539041243765E-006 
 5.465277455562378E-006  5.600269808714918E-006  5.738596472990162E-006  5.880339805872905E-006 
 6.025584199077978E-006  6.174416128795221E-006  6.326924207176421E-006  6.483199235093715E-006 
 6.643334256200481E-006  6.807424612328829E-006  6.975568000253257E-006  7.147864529859496E-006 
 7.324416783747085E-006  7.505329878305466E-006  7.690711526299686E-006  7.880672100999410E-006 
 8.075324701894143E-006  8.274785222030839E-006  8.479172417015055E-006  8.688607975715247E-006 
 8.903216592715300E-006  9.123126042555574E-006  9.348467255806637E-006  9.579374397024934E-006 
 9.815984944631448E-006  1.005843977276404E-005  1.030688323515131E-005  1.056146325105954E-005 
 1.082233139336061E-005  1.108964297877671E-005  1.136355716035229E-005  1.164423702221315E-005 
 1.193184967666168E-005  1.222656636367521E-005  1.252856255285799E-005  1.283801804791372E-005 
 1.315511709369709E-005  1.348004848591156E-005  1.381300568351353E-005  1.415418692389613E-005 
 1.450379534091639E-005  1.486203908583714E-005  1.522913145125725E-005  1.560529099810325E-005 
 1.599074168575639E-005  1.638571300539459E-005  1.679044011662789E-005  1.720516398750869E-005 
 1.763013153800015E-005  1.806559578698865E-005  1.851181600292727E-005  1.896905785819968E-005 
 1.943759358729710E-005  1.991770214890352E-005  2.040966939198134E-005  2.091378822596331E-005 
 2.143035879514459E-005  2.195968865738458E-005  2.250209296722201E-005  2.305789466351246E-005 
 2.362742466170124E-005  2.421102205084508E-005  2.480903429550151E-005  2.542181744260052E-005 
 2.604973633343286E-005  2.669316482086841E-005  2.735248599194357E-005  2.802809239594395E-005 
 2.872038627812368E-005  2.942977981919266E-005  3.015669538072819E-005  3.090156575663292E-005 
 3.166483443081961E-005  3.244695584126179E-005  3.324839565054215E-005  3.406963102310852E-005 
 3.491115090938117E-005  3.577345633684110E-005  3.665706070836254E-005  3.756249010785814E-005 
 3.849028361352229E-005  3.944099361877744E-005  4.041518616116021E-005  4.141344125933990E-005 
 4.243635325844771E-005  4.348453118393118E-005  4.455859910417310E-005  4.565919650204571E-005 
 4.678697865564647E-005  4.794261702844254E-005  4.912679966904341E-005  5.034023162087009E-005 
 5.158363534190390E-005  5.285775113484926E-005  5.416333758788089E-005  5.550117202630052E-005 
 5.687205097535137E-005  5.827679063444221E-005  5.971622736311261E-005  6.119121817898088E-005 
 6.270264126800190E-005  6.425139650732246E-005  6.583840600105405E-005  6.746461462928000E-005 
 6.913099061062177E-005  7.083852607870576E-005  7.258823767284801E-005  7.438116714336896E-005 
 7.621838197180937E-005  7.810097600651317E-005  8.003007011387511E-005  8.200681284568737E-005 
 8.403238112297571E-005  8.610798093671300E-005  8.823484806584927E-005  9.041424881307570E-005 
 9.264748075875913E-005  9.493587353350115E-005  9.728078960977755E-005  9.968362511313965E-005 
 1.021458106534329E-004  1.046688121765726E-004  1.072541318373351E-004  1.099033088937161E-004 
 1.126179206233907E-004  1.153995832627890E-004  1.182499529693814E-004  1.211707268077245E-004 
 1.241636437598751E-004  1.272304857607430E-004  1.303730787590350E-004  1.335932938043817E-004 
 1.368930481613515E-004  1.402743064509353E-004  1.437390818202750E-004  1.472894371412346E-004 
 1.509274862386245E-004  1.546553951487162E-004  1.584753834088910E-004  1.623897253790912E-004 
 1.664007515959530E-004  1.705108501603746E-004  1.747224681593362E-004  1.790381131228714E-004 
 1.834603545170055E-004  1.879918252735752E-004  1.926352233578331E-004  1.973933133747705E-004 
 2.022689282151292E-004  2.072649707420429E-004  2.123844155193698E-004  2.176303105826994E-004 
 2.230057792540916E-004  2.285140220016683E-004  2.341583183451095E-004  2.399420288082329E-004 
 2.458685969198013E-004  2.519415512637189E-004  2.581645075799191E-004  2.645411709171625E-004 
 2.710753378388154E-004  2.777708986834267E-004  2.846318398809106E-004  2.916622463259735E-004 
 2.988663038102209E-004  3.062483015143373E-004  3.138126345617301E-004  3.215638066354169E-004 
 3.295064326593050E-004  3.376452415459847E-004  3.459850790121832E-004  3.545309104637830E-004 
 3.632878239522339E-004  3.722610332038483E-004  3.814558807239787E-004  3.908778409778604E-004 
 4.005325236500212E-004  4.104256769841631E-004  4.205631912056848E-004  4.309511020284581E-004 
 4.415955942485656E-004  4.525030054265114E-004  4.636798296605422E-004  4.751327214531506E-004 
 4.868684996730553E-004  4.988941516149770E-004  5.112168371598674E-004  5.238438930377156E-004 
 5.367828371957384E-004  5.500413732744659E-004  5.636273951943596E-004  5.775489918556447E-004 
 5.918144519544818E-004  6.064322689177718E-004  6.214111459600311E-004  6.367600012652450E-004 
 6.524879732965031E-004  6.686044262369293E-004  6.851189555649830E-004  7.020413937674245E-004 
 7.193818161934820E-004  7.371505470534659E-004  7.553581655656863E-004  7.740155122551618E-004 
 7.931336954078528E-004  8.127240976844465E-004  8.327983828972299E-004  8.533685029548098E-004 
 8.744467049777794E-004  8.960455385907455E-004  9.181778633939163E-004  9.408568566197608E-004 
 9.640960209782560E-004  9.879091926964299E-004  1.012310549756032E-003  1.037314620335015E-003 
 1.062936291457271E-003  1.089190817856280E-003  1.116093831057334E-003  1.143661348684436E-003 
 1.171909783996944E-003  1.200855955661679E-003  1.230517097766514E-003  1.260910870081336E-003 
 1.292055368572345E-003  1.323969136176092E-003  1.356671173839645E-003  1.390180951833482E-003 
 1.424518421343771E-003  1.459704026350948E-003  1.495758715801817E-003  1.532703956082140E-003 
 1.570561743797371E-003  1.609354618869146E-003  1.649105677955223E-003  1.689838588200723E-003 
 1.731577601329279E-003  1.774347568082114E-003  1.818173953013739E-003  1.863082849653164E-003 
 1.909100996039601E-003  1.956255790641776E-003  2.004575308670649E-003  2.054088318794796E-003 
 2.104824300269034E-003  2.156813460485676E-003  2.210086752959682E-003  2.264675895757780E-003 
 2.320613390382994E-003  2.377932541125468E-003  2.436667474891250E-003  2.496853161521058E-003 
 2.558525434610551E-003  2.621721012845596E-003  2.686477521862805E-003  2.752833516652906E-003 
 2.820828504514199E-003  2.890502968575760E-003  2.961898391899401E-003  3.035057282179435E-003 
 3.110023197049259E-003  3.186840770016243E-003  3.265555737035640E-003  3.346214963740620E-003 
 3.428866473345004E-003  3.513559475236517E-003  3.600344394274947E-003  3.689272900813525E-003 
 3.780397941463525E-003  3.873773770617693E-003  3.969455982752040E-003  4.067501545525993E-003 
 4.167968833700440E-003  4.270917663892925E-003  4.376409330190987E-003  4.484506640646590E-003 
 4.595273954670653E-003  4.708777221351122E-003  4.825084018718486E-003  4.944263593980707E-003 
 5.066386904751945E-003  5.191526661299506E-003  5.319757369833626E-003  5.451155376868425E-003 
 5.585798914676939E-003  5.723768147869527E-003  5.865145221122006E-003  6.010014308083755E-003 
 6.158461661493381E-003  6.310575664532180E-003  6.466446883446152E-003  6.626168121467314E-003 
 6.789834474067487E-003  6.957543385577016E-003  7.129394707200859E-003  7.305490756468681E-003 
 7.485936378153308E-003  7.670839006693699E-003  7.860308730158994E-003  8.054458355793940E-003 
 8.253403477182262E-003  8.457262543068490E-003  8.666156927882420E-003  8.880211004001087E-003 
 9.099552215799738E-003  9.324311155530110E-003  9.554621641071643E-003  9.790620795606149E-003 
 1.003244912925762E-002  1.028025062275019E-002  1.053417281313224E-002  1.079436688161672E-002 
 1.106098774359259E-002  1.133419414085932E-002  1.161414873613861E-002  1.190101820992099E-002 
 1.219497335970623E-002  1.249618920169086E-002  1.280484507497276E-002  1.312112474832459E-002 
 1.344521652960821E-002  1.377731337788954E-002  1.411761301832342E-002  1.446631805987578E-002 
 1.482363611595470E-002  1.518977992801880E-002  1.556496749224093E-002  1.594942218929923E-002 
 1.634337291737508E-002  1.674705422843423E-002  1.716070646787642E-002  1.758457591763313E-002 
 1.801891494279849E-002  1.846398214188567E-002  1.892004250079023E-002  1.938736755055975E-002 
 1.986623552905872E-002  2.035693154662643E-002  2.085974775582797E-002  2.137498352539711E-002 
 2.190294561847431E-002  2.244394837525060E-002  2.299831390011935E-002  2.356637225345231E-002 
 2.414846164811241E-002  2.474492865082037E-002  2.535612838849675E-002  2.598242475969142E-002 
 2.662419065125592E-002  2.728180816034274E-002  2.795566882190251E-002  2.864617384180294E-002 
 2.935373433569644E-002  3.007877157378755E-002  3.082171723166134E-002  3.158301364728255E-002 
 3.236311408437041E-002  3.316248300225404E-002  3.398159633241105E-002  3.482094176182095E-002 
 3.568101902333844E-002  3.656234019321349E-002  3.746542999598737E-002  3.839082611688686E-002 
 3.933907952197523E-002  4.031075478616714E-002  4.130643042938594E-002  4.232669926099247E-002 
 4.337216873273915E-002  4.444346130043735E-002  4.554121479455748E-002  4.666608279998395E-002 
 4.781873504514213E-002  4.899985780075837E-002  5.021015428843615E-002  5.145034509936049E-002 
 5.272116862331393E-002  5.402338148831123E-002  5.535775901107246E-002  5.672509565864453E-002 
 5.812620552141490E-002  5.956192279779345E-002  6.103310229089894E-002  6.254061991748454E-002 
 6.408537322944639E-002  6.566828194821291E-002  6.729028851233419E-002  6.895235863858933E-002 
 7.065548189696229E-002  7.240067229981627E-002  7.418896890562254E-002  7.602143643759030E-002 
 7.789916591760010E-002  7.982327531576304E-002  8.179491021606426E-002  8.381524449840086E-002 
 8.588548103750925E-002  8.800685241913603E-002  9.018062167388902E-002  9.240808302923438E-002 
 9.469056268005731E-002  9.702941957825449E-002  9.942604624183687E-002  1.018818695840110E-001 
 1.043983517627365E-001  1.069769910512753E-001  1.096193227302415E-001  1.123269200016776E-001 
 1.151013949257191E-001  1.179443993803844E-001  1.208576260450799E-001  1.238428094083938E-001 
 1.269017268007823E-001  1.300361994527604E-001  1.332480935792434E-001  1.365393214906515E-001 
 1.399118427314692E-001  1.433676652469388E-001  1.469088465785372E-001  1.505374950890260E-001 
 1.542557712177257E-001  1.580658887668047E-001  1.619701162193436E-001  1.659707780899623E-001 
 1.700702563087835E-001  1.742709916396106E-001  1.785754851331090E-001  1.829862996158973E-001 
 1.875060612164087E-001  1.921374609284555E-001  1.968832562133863E-001  2.017462726418570E-001 
 2.067294055761129E-001  2.118356218938426E-001  2.170679617546206E-001  2.224295404099590E-001 
 2.279235500580842E-001  2.335532617445200E-001  2.393220273096086E-001  2.452332813841597E-001 
 2.512905434343544E-001  2.574974198571632E-001  2.638576061276363E-001  2.703748889989946E-001 
 2.770531487572776E-001  2.838963615315727E-001  2.909086016614147E-001  2.980940441224516E-001 
 3.054569670122806E-001  3.130017540974794E-001  3.207328974236859E-001  3.286549999900461E-001 
 3.367727784898088E-001  3.450910661185089E-001  3.536148154516168E-001  3.623491013932890E-001 
 3.712991241976842E-001  3.804702125653823E-001  3.898678268157353E-001  3.994975621380792E-001 
 4.093651519229043E-001  4.194764711753991E-001  4.298375400134183E-001  4.404545272517529E-001 
 4.513337540748744E-001  4.624816978005193E-001  4.739049957361898E-001  4.856104491308852E-001 
 4.976050272244104E-001  5.098958713968685E-001  5.224902994203666E-001  5.353958098160537E-001 
 5.486200863184959E-001  5.621710024505807E-001  5.760566262111025E-001  5.902852248785139E-001 
 6.048652699330174E-001  6.198054421003641E-001  6.351146365202373E-001  6.508019680422963E-001 
 6.668767766529320E-001  6.833486330362684E-001  7.002273442722444E-001  7.175229596757747E-001 
 7.352457767797734E-001  7.534063474662349E-001  7.720154842486441E-001  7.910842667095935E-001 
 8.106240480973167E-001  8.306464620853121E-001  8.511634296988347E-001  8.721871664123858E-001 
 8.937301894227812E-001  9.158053251015112E-001  9.384257166315155E-001  9.616048318323236E-001 
 9.853564711785660E-001  1.009694776016684E+000  1.034634236984306E+000  1.060189702637806E+000 
 1.086376388292963E+000  1.113209885083815E+000  1.140706169245371E+000  1.168881611625743E+000 
 1.197752987432891E+000  1.227337486222482E+000  1.257652722132173E+000  1.288716744368829E+000 
 1.320548047954749E+000  1.353165584739234E+000  1.386588774682291E+000  1.420837517416934E+000 
 1.455932204097136E+000  1.491893729538334E+000  1.528743504657929E+000  1.566503469222985E+000 
 1.605196104912803E+000  1.644844448704142E+000  1.685472106587148E+000  1.727103267619835E+000 
 1.769762718330048E+000  1.813475857472807E+000  1.858268711152378E+000  1.904167948317839E+000 
 1.951200896641302E+000
    </PP_RAB>
  </PP_MESH>
  <PP_LOCAL type="real" size="565" columns="4">
-4.243840430098800E+000 -4.243840513895800E+000 -4.243840595658000E+000 -4.243840675433600E+000 
-4.243840753270000E+000 -4.243840829213000E+000 -4.243840903307200E+000 -4.243840975596600E+000 