<UPF version="2.0.1">
  <PP_INFO>
    Generated using FHI98PP, converted with fhi2upf.x v.5.0.2
    Author: unknown
    Generation date: unknown
    Pseudopotential type: SL
    Element:  W
    Functional: PBE

    Suggested minimum cutoff for wavefunctions:   0. Ry
    Suggested minimum cutoff for charge density:   0. Ry
    The Pseudo was generated with a Non-Relativistic Calculation
    L component and cutoff radius for Local Potential:  1   0.0000

    Valence configuration: 
    nl pn  l   occ       Rcut    Rcut US       E pseu
    6s  6  0  2.00      0.000      0.000     0.000000
    6p  6  1  0.00      0.000      0.000     0.000000
    5d  5  2  4.20      0.000      0.000     0.000000
    5f  5  3  0.00      0.000      0.000     0.000000

    Generation configuration: not available.
    Comment:
    tungsten, fhi98PP : Trouiller-Martins-type, GGA Perdew/Burke/Ernzerhof (1996), l
  </PP_INFO>
  <!--                               -->
  <!-- END OF HUMAN READABLE SECTION -->
  <!--                               -->
  <PP_HEADER generated="Generated using FHI98PP, converted with fhi2upf.x v.5.0.2"
             author="unknown"
             date="unknown"
             comment="tungsten, fhi98PP : Trouiller-Martins-type, GGA Perdew/Burke/Ernzerhof (1996), l"
             element=" W"
             pseudo_type="SL"
             relativistic="no"
             is_ultrasoft="F"
             is_paw="F"
             is_coulomb="F"
             has_so="F"
             has_wfc="F"
             has_gipaw="F"
             paw_as_gipaw="F"
             core_correction="F"
             functional="PBE"
             z_valence="6.200000000000000E+000"
             total_psenergy="0.000000000000000E+000"
             wfc_cutoff="0.000000000000000E+000"
             rho_cutoff="0.000000000000000E+000"
             l_max="3"
             l_max_rho="0"
             l_local="1"
             mesh_size="565"
             number_of_wfc="4"
             number_of_proj="3"/>
  <PP_MESH dx="2.439988682353512E-002" mesh="565" xmin="-5.075173815233828E+000" rmax="7.980596117179100E+001"
zmesh="7.420000000000000E+001">
    <PP_R type="real" size="565" columns="4">
 8.423180592991901E-005  8.631233153638801E-005  8.844424612533700E-005  9.062881900463301E-005 
 9.286735083404700E-005  9.516117439964799E-005  9.751165540731900E-005  9.992019329588000E-005 
 1.023882220702900E-004  1.049172111554200E-004  1.075086662709600E-004  1.101641303278600E-004 
 1.128851843469500E-004  1.156734484003200E-004  1.185305825758100E-004  1.214582879654300E-004 
 1.244583076781800E-004  1.275324278778300E-004  1.306824788464100E-004  1.339103360739200E-004 
 1.372179213749500E-004  1.406072040329100E-004  1.440802019725200E-004  1.476389829612400E-004 
 1.512856658403800E-004  1.550224217866400E-004  1.588514756047700E-004  1.627751070522100E-004 
 1.667956521964000E-004  1.709155048056500E-004  1.751371177743500E-004  1.794630045833800E-004 
 1.838957407965900E-004  1.884379655942600E-004  1.930923833444400E-004  1.978617652130500E-004 
 2.027489508138100E-004  2.077568498989100E-004  2.128884440914100E-004  2.181467886604700E-004 
 2.235350143403900E-004  2.290563291945900E-004  2.347140205257000E-004  2.405114568326800E-004 
 2.464520898164500E-004  2.525394564349200E-004  2.587771810088600E-004  2.651689773797800E-004 
 2.717186511210600E-004  2.784301018037500E-004  2.853073253183000E-004  2.923544162536600E-004 
 2.995755703351300E-004  3.069750869224100E-004  3.145573715693900E-004  3.223269386471600E-004 
 3.302884140317400E-004  3.384465378583200E-004  3.468061673434200E-004  3.553722796768100E-004 
 3.641499749848200E-004  3.731444793669500E-004  3.823611480073100E-004  3.918054683630900E-004 
 4.014830634316600E-004  4.113996950984200E-004  4.215612675673500E-004  4.319738308762700E-004 
 4.426435844989100E-004  4.535768810360400E-004  4.647802299976300E-004  4.762603016785700E-004 
 4.880239311300300E-004  5.000781222289400E-004  5.124300518479900E-004  5.250870741286400E-004 
 5.380567248596200E-004  5.513467259636500E-004  5.649649900949500E-004  5.789196253503000E-004 
 5.932189400964500E-004  6.078714479168300E-004  6.228858726803800E-004  6.382711537355800E-004 
 6.540364512328500E-004  6.701911515783000E-004  6.867448730222900E-004  7.037074713859400E-004 
 7.210890459291700E-004  7.388999453636200E-004  7.571507740141000E-004  7.758523981322500E-004 
 7.950159523661200E-004  8.146528463895600E-004  8.347747716953799E-004  8.553937085562600E-004 
 8.765219331576000E-004  8.981720249065900E-004  9.203568739217800E-004  9.430896887076500E-004 
 9.663840040187300E-004  9.902536889179899E-004  1.014712955034300E-003  1.039776365023600E-003 
 1.065458841239700E-003  1.091775674618300E-003  1.118742533781400E-003  1.146375474365800E-003 
 1.174690948582600E-003  1.203705815012600E-003  1.233437348643400E-003  1.263903251154900E-003 
 1.295121661458400E-003  1.327111166496500E-003  1.359890812308900E-003  1.393480115373000E-003 
 1.427899074222700E-003  1.463168181356000E-003  1.499308435435500E-003  1.536341353790700E-003 
 1.574288985229400E-003  1.613173923164500E-003  1.653019319066700E-003  1.693848896247600E-003 
 1.735686963984900E-003  1.778558431995400E-003  1.822488825265700E-003  1.867504299249700E-003 
 1.913631655441200E-003  1.960898357330600E-003  2.009332546756600E-003  2.058963060661500E-003 
 2.109819448259900E-003  2.161931988631900E-003  2.215331708751100E-003  2.270050401957300E-003 
 2.326120646885600E-003  2.383575826863700E-003  2.442450149787200E-003  2.502778668487000E-003 
 2.564597301598600E-003  2.627942854948100E-003  2.692853043465300E-003  2.759366513638900E-003 
 2.827522866525800E-003  2.897362681328900E-003  2.968927539557800E-003  3.042260049784800E-003 
 3.117403873014500E-003  3.194403748678000E-003  3.273305521270300E-003  3.354156167645700E-003 
 3.437003824986600E-003  3.521897819463700E-003  3.608888695604500E-003  3.698028246385900E-003 
 3.789369544071600E-003  3.882966971810200E-003  3.978876256013900E-003  4.077154499537500E-003 
 4.177860215676000E-003  4.281053363003200E-003  4.386795381069400E-003  4.495149226981800E-003 
 4.606179412888300E-003  4.719952044386600E-003  4.836534859883000E-003  4.955997270922100E-003 
 5.078410403513900E-003  5.203847140480600E-003  5.332382164850500E-003  5.464092004322300E-003 
 5.599055076829100E-003  5.737351737226800E-003  5.879064325136300E-003  6.024277213967100E-003 
 6.173076861152100E-003  6.325551859622600E-003  6.481792990555300E-003  6.641893277422000E-003 
 6.805948041374300E-003  6.974054957996200E-003  7.146314115458700E-003  7.322828074110600E-003 
 7.503701927541100E-003  7.689043365151400E-003  7.878962736270600E-003  8.073573115856500E-003 
 8.272990371818100E-003  8.477333234002101E-003  8.686723364881899E-003  8.901285431994499E-003 
 9.121147182164800E-003  9.346439517564200E-003  9.577296573648100E-003  9.813855799017199E-003 
 1.005625803725300E-002  1.030464761077300E-002  1.055917240675900E-002  1.081998396520600E-002 
 1.108723756914700E-002  1.136109233710500E-002  1.164171131783100E-002  1.192926158738100E-002 
 1.222391434859000E-002  1.252584503300000E-002  1.283523340531500E-002  1.315226367042600E-002 
 1.347712458308600E-002  1.381000956028800E-002  1.415111679642700E-002  1.450064938129900E-002 
 1.485881542101700E-002  1.522582816191600E-002  1.560190611751600E-002  1.598727319861800E-002 
 1.638215884662400E-002  1.678679817013600E-002  1.720143208493800E-002  1.762630745743600E-002 
 1.806167725163500E-002  1.850780067975000E-002  1.896494335654000E-002  1.943337745744600E-002 
 1.991338188064500E-002  2.040524241309700E-002  2.090925190070100E-002  2.142571042264800E-002 
 2.195492547008700E-002  2.249721212919900E-002  2.305289326879000E-002  2.362229973252900E-002 
 2.420577053592200E-002  2.480365306816000E-002  2.541630329894300E-002  2.604408599042700E-002 
 2.668737491439100E-002  2.734655307477600E-002  2.802201293572300E-002  2.871415665523500E-002 
 2.942339632462000E-002  3.015015421383800E-002  3.089486302292000E-002  3.165796613958600E-002 
 3.243991790323300E-002  3.324118387544300E-002  3.406224111716700E-002  3.490357847276100E-002 
 3.576569686103800E-002  3.664910957350600E-002  3.755434257997100E-002  3.848193484169600E-002 
 3.943243863228600E-002  4.040641986650400E-002  4.140445843720700E-002  4.242714856060600E-002 
 4.347509913005200E-002  4.454893407856500E-002  4.564929275030500E-002  4.677683028123800E-002 
 4.793221798918400E-002  4.911614377351700E-002  5.032931252472300E-002  5.157244654408400E-002 
 5.284628597372300E-002  5.415158923727400E-002  5.548913349143400E-002  5.685971508867300E-002 
 5.826415005136300E-002  5.970327455763200E-002  6.117794543920500E-002  6.268904069155300E-002 
 6.423745999663499E-002  6.582412525855200E-002  6.744998115243800E-002  6.911599568690301E-002 
 7.082316078037000E-002  7.257249285164501E-002  7.436503342508000E-002  7.620184975068001E-002 
 7.808403543952200E-002  8.001271111487800E-002  8.198902507941500E-002  8.401415399887700E-002 
 8.608930360264901E-002  8.821570940163501E-002  9.039463742385501E-002  9.262738496822399E-002 
 9.491528137693900E-002  9.725968882695001E-002  9.966200314097499E-002  1.021236546185600E-001 
 1.046461088876400E-001  1.072308677771600E-001  1.098794702112600E-001  1.125934931254700E-001 
 1.153745524056700E-001  1.182243038500900E-001  1.211444441551900E-001  1.241367119258200E-001 
 1.272028887103900E-001  1.303448000615400E-001  1.335643166230600E-001  1.368633552436500E-001 
 1.402438801181700E-001  1.437079039570800E-001  1.472574891848200E-001  1.508947491676900E-001 
 1.546218494721300E-001  1.584410091540900E-001  1.623545020802000E-001  1.663646582815800E-001 
 1.704738653411400E-001  1.746845698150600E-001  1.789992786894900E-001  1.834205608731200E-001 
 1.879510487266900E-001  1.925934396302400E-001  1.973504975891100E-001  2.022250548795600E-001 
 2.072200137350800E-001  2.123383480743400E-001  2.175831052717800E-001  2.229574079719900E-001 
 2.284644559489000E-001  2.341075280108300E-001  2.398899839527000E-001  2.458152665563300E-001 
 2.518869036402700E-001  2.581085101601900E-001  2.644837903611500E-001  2.710165399830700E-001 
 2.777106485206500E-001  2.845701015391100E-001  2.915989830471200E-001  2.988014779283900E-001 
 3.061818744332200E-001  3.137445667317200E-001  3.214940575299900E-001  3.294349607509800E-001 
 3.375720042815300E-001  3.459100327872900E-001  3.544540105971300E-001  3.632090246588800E-001 
 3.721802875679600E-001  3.813731406708800E-001  3.907930572454600E-001  4.004456457594200E-001 
 4.103366532096800E-001  4.204719685439600E-001  4.308576261669900E-001  4.414998095333200E-001 
 4.524048548287900E-001  4.635792547430600E-001  4.750296623352100E-001  4.867628949948900E-001 
 4.987859385012700E-001  5.111059511822500E-001  5.237302681764500E-001  5.366664058004100E-001 
 5.499220660236800E-001  5.635051410544600E-001  5.774237180385100E-001  5.916860838740600E-001 
 6.063007301457500E-001  6.212763581803500E-001  6.366218842274000E-001  6.523464447678200E-001 
 6.684594019535800E-001  6.849703491818400E-001  7.018891168066300E-001  7.192257779917500E-001 
 7.369906547081500E-001  7.551943238794400E-001  7.738476236792600E-001  7.929616599841400E-001 
 8.125478129857500E-001  8.326177439665000E-001  8.531834022424700E-001  8.742570322778600E-001 
 8.958511809751200E-001  9.179787051452100E-001  9.406527791622900E-001  9.638869028076000E-001 
 9.876949093069500E-001  1.012090973566800E+000  1.037089620613900E+000  1.062705734243100E+000 
 1.088954565878900E+000  1.115851743656100E+000  1.143413281724400E+000  1.171655589783000E+000 
 1.200595482850600E+000  1.230250191277100E+000  1.260637371001600E+000  1.291775114065300E+000 
 1.323681959382800E+000  1.356376903779500E+000  1.389879413302900E+000  1.424209434811400E+000 
 1.459387407851300E+000  1.495434276825200E+000  1.532371503462800E+000  1.570221079598300E+000 
 1.609005540264400E+000  1.648747977108900E+000  1.689472052143500E+000  1.731202011831500E+000 
 1.773962701523700E+000  1.817779580251300E+000  1.862678735883600E+000  1.908686900659900E+000 
 1.955831467106200E+000  2.004140504343700E+000  2.053642774801000E+000  2.104367751338600E+000 
 2.156345634796600E+000  2.209607371976100E+000  2.264184674063900E+000  2.320110035513300E+000 
 2.377416753390500E+000  2.436138947199200E+000  2.496311579195000E+000  2.557970475201200E+000 
 2.621152345938600E+000  2.685894808883300E+000  2.752236410662700E+000  2.820216650006100E+000 
 2.889876001261200E+000  2.961255938492400E+000  3.034398960173200E+000  3.109348614489400E+000 
 3.186149525267300E+000  3.264847418541400E+000  3.345489149779400E+000  3.428122731779000E+000 
 3.512797363253900E+000  3.599563458126300E+000  3.688472675542000E+000  3.779577950627900E+000 
 3.872933526008400E+000  3.968594984100800E+000  4.066619280208100E+000  4.167064776429200E+000 
 4.269991276407000E+000  4.375460060934300E+000  4.483533924439300E+000  4.594277212373000E+000 
 4.707755859518600E+000  4.824037429248700E+000  4.943191153751200E+000  5.065287975248800E+000 
 5.190400588237500E+000  5.318603482766900E+000  5.449972988791300E+000  5.584587321614400E+000 
 5.722526628458300E+000  5.863873036181200E+000  6.008710700174900E+000  6.157125854469200E+000 
 6.309206863074600E+000  6.465044272592500E+000  6.624730866125600E+000  6.788361718518900E+000 
 6.956034252966300E+000  7.127848299014600E+000  7.303906152000200E+000  7.484312633954600E+000 
 7.669175156013300E+000  7.858603782366800E+000  8.052711295791299E+000  8.251613264797300E+000 
 8.455428112437801E+000  8.664277186814999E+000  8.878284833329401E+000  9.097578468712600E+000 
 9.322288656889800E+000  9.552549186715000E+000  9.788497151626800E+000  1.003027303127200E+001 
 1.027802077514400E+001  1.053188788829100E+001  1.079202551913100E+001  1.105858854945400E+001 
 1.133173568662500E+001  1.161162955808500E+001  1.189843680817000E+001  1.219232819733100E+001 
 1.249347870380600E+001  1.280206762779000E+001  1.311827869819600E+001  1.344230018204100E+001 
 1.377432499653800E+001  1.411455082395200E+001  1.446318022930400E+001  1.482042078096800E+001 
 1.518648517425800E+001  1.556159135806200E+001  1.594596266460600E+001  1.633982794242200E+001 
 1.674342169259900E+001  1.715698420840700E+001  1.758076171835400E+001  1.801500653279800E+001 
 1.845997719415800E+001  1.891593863085300E+001  1.938316231503600E+001  1.986192642421700E+001 
 2.035251600689500E+001  2.085522315226500E+001  2.137034716412600E+001  2.189819473908000E+001 
 2.243908014913600E+001  2.299332542881900E+001  2.356126056691100E+001  2.414322370291400E+001 
 2.473956132837600E+001  2.535062849318700E+001  2.597678901696800E+001  2.661841570568700E+001 
 2.727589057361800E+001  2.794960507078600E+001  2.863996031603500E+001  2.934736733584100E+001 
 3.007224730903600E+001  3.081503181756900E+001  3.157616310346300E+001  3.235609433211900E+001 
 3.315528986212200E+001  3.397422552171600E+001  3.481338889210300E+001  3.567327959773800E+001 
 3.655440960380200E+001  3.745730352101600E+001  3.838249891798500E+001  3.933054664125900E+001 
 4.030201114329800E+001  4.129747081853800E+001  4.231751834775600E+001  4.336276105094500E+001 
 4.443382124890300E+001  4.553133663375100E+001  4.665596064860500E+001  4.780836287662600E+001 
 4.898922943967800E+001  5.019926340683800E+001  5.143918521298700E+001  5.270973308774800E+001 
 5.401166349501500E+001  5.534575158334200E+001  5.671279164745100E+001  5.811359760114300E+001 
 5.954900346189100E+001  6.101986384740000E+001  6.252705448443000E+001  6.407147273019601E+001 
 6.565403810663200E+001  6.727569284786500E+001  6.893740246120799E+001  7.064015630199999E+001 
 7.238496816265901E+001  7.417287687627700E+001  7.600494693512100E+001  7.788226912441800E+001 
 7.980596117179100E+001
    </PP_R>
    <PP_RAB type="real" size="565" columns="4">
 2.055246531631998E-006  2.106011120963308E-006  2.158029595651107E-006  2.211332926663694E-006 
 2.265952849952276E-006  2.321921885346098E-006  2.379273355914140E-006  2.438041407805224E-006 
 2.498261030578057E-006  2.559968078033184E-006  2.623199289560631E-006  2.687992312012957E-006 
 2.754385722119478E-006  2.822419049455837E-006  2.892132799977448E-006  2.963568480136830E-006 
 3.036768621596304E-006  3.111776806549707E-006  3.188637693671426E-006  3.267397044705200E-006 
 3.348101751709520E-006  3.430799864976715E-006  3.515540621641569E-006  3.602374474996086E-006 
 3.691353124528425E-006  3.782529546704341E-006  3.875958026507938E-006  3.971694189762737E-006 
 4.069795036249887E-006  4.170318973645232E-006  4.273325852294281E-006  4.378877000846036E-006 
 4.487035262766946E-006  4.597865033757149E-006  4.711432300090994E-006  4.827804677903298E-006 
 4.947051453447452E-006  5.069243624347578E-006  5.194453941868887E-006  5.322756954233102E-006 
 5.454229051002815E-006  5.588948508562399E-006  5.726995536723979E-006  5.868452326480944E-006 
 6.013403098945091E-006  6.161934155489126E-006  6.314133929129645E-006  6.470093037179176E-006 
 6.629904335197487E-006  6.793662972276860E-006  6.961466447692036E-006  7.133414668949979E-006 
 7.309610011273156E-006  7.490157378551659E-006  7.675164265801799E-006  7.864740823167252E-006 
 8.058999921499365E-006  8.258057219560302E-006  8.462031232883429E-006  8.671043404335832E-006 
 8.885218176422753E-006  9.104683065380514E-006  9.329568737095323E-006  9.560009084901566E-006 
 9.796141309298675E-006  1.003810599963830E-005  1.028604721782935E-005  1.054011258410989E-005 
 1.080045336493731E-005  1.106722456305143E-005  1.134058500975879E-005  1.162069745949980E-005 
 1.190772868674943E-005  1.220184958531210E-005  1.250323527006919E-005  1.281206518124001E-005 
 1.312852319121670E-005  1.345279771403969E-005  1.378508181757642E-005  1.412557333847067E-005 
 1.447447499993084E-005  1.483199453242907E-005  1.519834479738018E-005  1.557374391387534E-005 
 1.595841538854808E-005  1.635258824864519E-005  1.675649717838687E-005  1.717038265869301E-005 
 1.759449111036266E-005  1.802907504078861E-005  1.847439319429605E-005  1.893071070619521E-005 
 1.939829926063831E-005  1.987743725237600E-005  2.036840995250964E-005  2.087150967833673E-005 
 2.138703596739165E-005  2.191529575578616E-005  2.245660356095401E-005  2.301128166890963E-005 
 2.357966032613172E-005  2.416207793618711E-005  2.475888126121180E-005  2.537042562836258E-005 
 2.599707514138355E-005  2.663920289737522E-005  2.729719120894107E-005  2.797143183180190E-005 
 2.866232619804655E-005  2.937028565513854E-005  3.009573171082019E-005  3.083909628407764E-005 
 3.160082196229372E-005  3.238136226476427E-005  3.318118191270240E-005  3.400075710594786E-005 
 3.484057580646445E-005  3.570113802888411E-005  3.658295613819771E-005  3.748655515480980E-005 
 3.841247306713531E-005  3.936126115189194E-005  4.033348430234457E-005  4.132972136461132E-005 
 4.235056548231684E-005  4.339662444973184E-005  4.446852107364055E-005  4.556689354415794E-005 
 4.669239581469943E-005  4.784569799132256E-005  4.902748673170663E-005  5.023846565398007E-005 
 5.147935575563486E-005  5.275089584279857E-005  5.405384297011550E-005  5.538897289147852E-005 
 5.675708052189694E-005  5.815898041078842E-005  5.959550722693408E-005  6.106751625544072E-005 
 6.257588390694940E-005  6.412150823945141E-005  6.570530949296542E-005  6.732823063744183E-005 
 6.899123793418711E-005  7.069532151115941E-005  7.244149595248690E-005  7.423080090251144E-005 
 7.606430168480384E-005  7.794308993641951E-005  7.986828425784795E-005  8.184103087901737E-005 
 8.386250434173034E-005  8.593390819896939E-005  8.805647573148507E-005  9.023147068205199E-005 
 9.246018800789791E-005  9.474395465169375E-005  9.708413033159031E-005  9.948210835078197E-005 
 1.019393164270444E-004  1.044572175427925E-004  1.070373108161000E-004  1.096811323932573E-004 
 1.123902563633720E-004  1.151662956955462E-004  1.180109031992275E-004  1.209257725082482E-004 
 1.239126390892025E-004  1.269732812747035E-004  1.301095213221894E-004  1.333232264988473E-004 
 1.366163101933698E-004  1.399907330551465E-004  1.434485041616086E-004  1.469916822143987E-004 
 1.506223767650947E-004  1.543427494711935E-004  1.581550153831326E-004  1.620614442630955E-004 
 1.660643619363934E-004  1.701661516762212E-004  1.743692556226237E-004  1.786761762365043E-004 
 1.830894777895451E-004  1.876117878909478E-004  1.922457990518532E-004  1.969942702884344E-004 
 2.018600287645574E-004  2.068459714750442E-004  2.119550669704765E-004  2.171903571246477E-004 
 2.225549589456274E-004  2.280520664315826E-004  2.336849524724443E-004  2.394569707985135E-004 
 2.453715579772386E-004  2.514322354592727E-004  2.576426116751145E-004  2.640063841834911E-004 
 2.705273418728334E-004  2.772093672170941E-004  2.840564385873443E-004  2.910726326204413E-004 
 2.982621266461830E-004  3.056292011743395E-004  3.131782424433432E-004  3.209137450316870E-004 
 3.288403145339813E-004  3.369626703029652E-004  3.452856482594457E-004  3.538142037714601E-004 
 3.625534146046131E-004  3.715084839453441E-004  3.806847434988106E-004  3.900876566632155E-004 
 3.997228217828002E-004  4.095959754808448E-004  4.197129960752129E-004  4.300799070782714E-004 
 4.407028807831128E-004  4.515882419384463E-004  4.627424715143302E-004  4.741722105607210E-004 
 4.858842641615729E-004  4.978856054863655E-004  5.101833799418910E-004  5.227849094264480E-004 
 5.356976966892714E-004  5.489294297975171E-004  5.624879867135105E-004  5.763814399853314E-004 
 5.906180615529577E-004  6.052063276733336E-004  6.201549239668514E-004  6.354727505888353E-004 
 6.511689275283906E-004  6.672528000383307E-004  6.837339441992783E-004  7.006221726209916E-004 
 7.179275402847471E-004  7.356603505297777E-004  7.538311611878680E-004  7.724507908692053E-004 
 7.915303254036559E-004  8.110811244411298E-004  8.311148282148391E-004  8.516433644717451E-004 
 8.726789555741924E-004  8.942341257768837E-004  9.163217086835582E-004  9.389548548880352E-004 
 9.621470398037724E-004  9.859120716869385E-004  1.010264099857614E-003  1.035217623124097E-003 
 1.060787498415239E-003  1.086988949626113E-003  1.113837576681864E-003  1.141349364825918E-003 
 1.169540694137104E-003  1.198428349282294E-003  1.228029529509570E-003  1.258361858888464E-003 
 1.289443396803012E-003  1.321292648704048E-003  1.353928577127022E-003  1.387370612982073E-003 
 1.421638667122725E-003  1.456753142200664E-003  1.492734944813009E-003  1.529605497949881E-003 
 1.567386753749258E-003  1.606101206566868E-003  1.645771906369064E-003  1.686422472456375E-003 
 1.728077107526059E-003  1.770760612081949E-003  1.814498399200358E-003  1.859316509660620E-003 
 1.905241627449242E-003  1.952301095647233E-003  2.000522932709708E-003  2.049935849147649E-003 
 2.100569264621590E-003  2.152453325457757E-003  2.205618922596554E-003  2.260097709984683E-003 
 2.315922123421302E-003  2.373125399869823E-003  2.431741597246591E-003  2.491805614698654E-003 
 2.553353213381748E-003  2.616421037752163E-003  2.681046637384743E-003  2.747268489327947E-003 
 2.815126021014369E-003  2.884659633733423E-003  2.955910726686706E-003  3.028921721635790E-003 
 3.103736088160249E-003  3.180398369537890E-003  3.258954209265474E-003  3.339450378234342E-003 
 3.421934802576775E-003  3.506456592200206E-003  3.593066070027555E-003  3.681814801957356E-003 
 3.772755627565655E-003  3.865942691566488E-003  3.961431476048277E-003  4.059278833506647E-003 
 4.159543020694382E-003  4.262283733305383E-003  4.367562141517977E-003  4.475440926413461E-003 
 4.585984317295970E-003  4.699258129933199E-003  4.815329805742624E-003  4.934268451944442E-003 
 5.056144882707345E-003  5.181031661310302E-003  5.309003143344759E-003  5.440135520985303E-003 
 5.574506868353684E-003  5.712197188001830E-003  5.853288458545536E-003  5.997864683471569E-003 
 6.146011941153284E-003  6.297818436099899E-003  6.453374551471648E-003  6.612772902892988E-003 
 6.776108393594401E-003  6.943478270916180E-003  7.114982184207664E-003  7.290722244157743E-003 
 7.470803083588408E-003  7.655331919753029E-003  7.844418618170843E-003  8.038175758039645E-003 
 8.236718699263245E-003  8.440165651135197E-003  8.648637742718089E-003  8.862259094963248E-003 
 9.081156894608979E-003  9.305461469905610E-003  9.535306368212504E-003  9.770828435507284E-003 
 1.001216789786437E-002  1.025946844494164E-002  1.051287731553156E-002  1.077254538522532E-002 
 1.103862725624031E-002  1.131128134946942E-002  1.159066999880123E-002  1.187695954777162E-002 
 1.217032044860174E-002  1.247092736368216E-002  1.277895926956507E-002  1.309459956352338E-002 
 1.341803617274240E-002  1.374946166620902E-002  1.408907336936450E-002  1.443707348158777E-002 
 1.479366919658301E-002  1.515907282573861E-002  1.553350192453424E-002  1.591717942207031E-002 
 1.631033375379532E-002  1.671319899751423E-002  1.712601501275279E-002  1.754902758356770E-002 
 1.798248856488191E-002  1.842665603243446E-002  1.888179443643554E-002  1.934817475901555E-002 
 1.982607467556328E-002  2.031577872004974E-002  2.081757845443491E-002  2.133177264225947E-002 
 2.185866742652320E-002  2.239857651195844E-002  2.295182135180365E-002  2.351873133919323E-002 
 2.409964400327136E-002  2.469490521015139E-002  2.530486936884213E-002  2.592989964225343E-002 
 2.657036816341697E-002  2.722665625705316E-002  2.789915466660224E-002  2.858826378686749E-002 
 2.929439390240214E-002  3.001796543179367E-002  3.075940917795789E-002  3.151916658465249E-002 
 3.229768999929553E-002  3.309544294227678E-002  3.391290038295215E-002  3.475054902240908E-002 
 3.560888758326401E-002  3.648842710656997E-002  3.738969125610267E-002  3.831321663012765E-002 
 3.925955308089234E-002  4.022926404198963E-002  4.122292686382702E-002  4.224113315736490E-002 
 4.328448914635089E-002  4.435361602826489E-002  4.544915034416530E-002  4.657174435766558E-002 
 4.772206644329993E-002  4.890080148444888E-002  5.010865128111502E-002  5.134633496775894E-002 
 5.261458944146103E-002  5.391416980066570E-002  5.524584979474191E-002  5.661042228467256E-002 
 5.800869971510450E-002  5.944151459806648E-002  6.090972000863822E-002  6.241419009285362E-002 
 6.395582058814540E-002  6.553552935667301E-002  6.715425693178241E-002  6.881296707799819E-002 
 7.051264736482352E-002  7.225430975473583E-002  7.403899120567872E-002  7.586775428845709E-002 
 7.774168781938227E-002  7.966190750852095E-002  8.162955662398209E-002  8.364580667259564E-002 
 8.571185809740774E-002  8.782894099241441E-002  8.999831583492657E-002  9.222127423604956E-002 
 9.449913970967977E-002  9.683326846050867E-002  9.922505019148348E-002  1.016759089312121E-001 
 1.041873038818130E-001  1.067607302876950E-001  1.093977203257992E-001  1.120998440178476E-001 
 1.148687101650881E-001  1.177059673061656E-001  1.206133046986293E-001  1.235924533246841E-001 
 1.266451869218051E-001  1.297733230387721E-001  1.329787241178312E-001  1.362632986035405E-001 
 1.396290020790485E-001  1.430778384304005E-001  1.466118610396320E-001  1.502331740073104E-001 
 1.539439334052913E-001  1.577463485604009E-001  1.616426833698444E-001  1.656352576490795E-001 
 1.697264485130114E-001  1.739186917912835E-001  1.782144834785268E-001  1.826163812204463E-001 
 1.871270058365918E-001  1.917490428807549E-001  1.964852442399105E-001  2.013384297726352E-001 
 2.063114889880195E-001  2.114073827660232E-001  2.166291451203457E-001  2.219798850048174E-001 
 2.274627881644363E-001  2.330811190320984E-001  2.388382226721898E-001  2.447375267721933E-001 
 2.507825436834563E-001  2.569768725124607E-001  2.633242012634992E-001  2.698283090347190E-001 
 2.764930682678640E-001  2.833224470540891E-001  2.903205114963324E-001  2.974914281302724E-001 
 3.048394664051126E-001  3.123690012253187E-001  3.200845155555740E-001  3.279906030897859E-001 
 3.360919709861180E-001  3.443934426694631E-001  3.528999607034083E-001  3.616165897327872E-001 
 3.705485194991892E-001  3.797010679308149E-001  3.890796843087029E-001  3.986899525111335E-001 
 4.085375943381384E-001  4.186284729183101E-001  4.289685961993764E-001  4.395641205255170E-001 
 4.504213543024946E-001  4.615467617537490E-001  4.729469667690893E-001  4.846287568482763E-001 
 4.965990871424249E-001  5.088650845948354E-001  5.214340521843290E-001  5.343134732732842E-001 
 5.475110160631519E-001  5.610345381598957E-001  5.748920912524492E-001  5.890919259063920E-001 
 6.036424964762804E-001  6.185524661392474E-001  6.338307120528692E-001  6.494863306405725E-001 
 6.655286430074075E-001  6.819672004896816E-001  6.988117903417911E-001  7.160724415632317E-001 
 7.337594308698370E-001  7.518832888123173E-001  7.704548060459826E-001  7.894850397553297E-001 
 8.089853202372780E-001  8.289672576471288E-001  8.494427489110278E-001  8.704239848091316E-001 
 8.919234572339140E-001  9.139539666275939E-001  9.365286296032930E-001  9.596608867544888E-001 
 9.833645106573224E-001  1.007653614070571E+000  1.032542658338117E+000  1.058046461999055E+000 
 1.084180209610423E+000  1.110959460787803E+000  1.138400159469270E+000  1.166518643408172E+000 
 1.195331653900338E+000  1.224856345751675E+000  1.255110297491744E+000  1.286111521839795E+000 
 1.317878476429229E+000  1.350430074797034E+000  1.383785697644532E+000  1.417965204376351E+000 
 1.452988944924441E+000  1.488877771864082E+000  1.525653052829106E+000  1.563336683233999E+000 
 1.601951099309883E+000  1.641519291462817E+000  1.682064817961966E+000  1.723611818965631E+000 
 1.766185030894073E+000  1.809809801157164E+000  1.854512103245745E+000  1.900318552195903E+000 
 1.947256420435138E+000
    </PP_RAB>
  </PP_MESH>
  <PP_LOCAL type="real" size="565" columns="4">
-4.519247081900800E+000 -4.519247167142600E+000 -4.519247250317200E+000 -4.519247331473600E+000 
-4.519247410660200E+000 -4.519247487923400E+000 -4.519247563309000E+000 -4.519247636861600E+000 