<UPF version="2.0.1">
  <PP_INFO>
    Generated using FHI98PP, converted with fhi2upf.x v.5.0.2
    Author: unknown
    Generation date: unknown
    Pseudopotential type: SL
    Element:  W
    Functional: PBE

    Suggested minimum cutoff for wavefunctions:   0. Ry
    Suggested minimum cutoff for charge density:   0. Ry
    The Pseudo was generated with a Non-Relativistic Calculation
    L component and cutoff radius for Local Potential:  1   0.0000

    Valence configuration: 
    nl pn  l   occ       Rcut    Rcut US       E pseu
    6s  6  0  2.00      0.000      0.000     0.000000
    6p  6  1  0.00      0.000      0.000     0.000000
    5d  5  2  4.15      0.000      0.000     0.000000
    5f  5  3  0.00      0.000      0.000     0.000000

    Generation configuration: not available.
    Comment:
    tungsten, fhi98PP : Trouiller-Martins-type, GGA Perdew/Burke/Ernzerhof (1996), l
  </PP_INFO>
  <!--                               -->
  <!-- END OF HUMAN READABLE SECTION -->
  <!--                               -->
  <PP_HEADER generated="Generated using FHI98PP, converted with fhi2upf.x v.5.0.2"
             author="unknown"
             date="unknown"
             comment="tungsten, fhi98PP : Trouiller-Martins-type, GGA Perdew/Burke/Ernzerhof (1996), l"
             element=" W"
             pseudo_type="SL"
             relativistic="no"
             is_ultrasoft="F"
             is_paw="F"
             is_coulomb="F"
             has_so="F"
             has_wfc="F"
             has_gipaw="F"
             paw_as_gipaw="F"
             core_correction="F"
             functional="PBE"
             z_valence="6.150000000000000E+000"
             total_psenergy="0.000000000000000E+000"
             wfc_cutoff="0.000000000000000E+000"
             rho_cutoff="0.000000000000000E+000"
             l_max="3"
             l_max_rho="0"
             l_local="1"
             mesh_size="565"
             number_of_wfc="4"
             number_of_proj="3"/>
  <PP_MESH dx="2.439988682353512E-002" mesh="565" xmin="-5.075173815233824E+000" rmax="7.985977503637100E+001"
zmesh="7.415000000000001E+001">
    <PP_R type="real" size="565" columns="4">
 8.428860418071500E-005  8.637053270397800E-005  8.850388486176701E-005  9.068993081785199E-005 
 9.292997210905299E-005  9.522534242014700E-005  9.757740837792400E-005  9.998757036485900E-005 
 1.024572633528700E-004  1.049879577576900E-004  1.075811603143000E-004  1.102384149740700E-004 
 1.129613038239200E-004  1.157514480283800E-004  1.186105087946800E-004  1.215401883619000E-004 
 1.245422310144400E-004  1.276184241205000E-004  1.307705991962800E-004  1.340006329964300E-004 
 1.373104486314400E-004  1.407020167126300E-004  1.441773565254400E-004  1.477385372316100E-004 
 1.513876791012300E-004  1.551269547750300E-004  1.589585905579800E-004  1.628848677447600E-004 
 1.669081239780600E-004  1.710307546403100E-004  1.752552142799300E-004  1.795840180726400E-004 
 1.840197433190400E-004  1.885650309790200E-004  1.932225872442000E-004  1.979951851491300E-004 
 2.028856662223200E-004  2.078969421780100E-004  2.130319966498000E-004  2.182938869670500E-004 
 2.236857459751400E-004  2.292107839007300E-004  2.348722902630700E-004  2.406736358325700E-004 
 2.466182746376400E-004  2.527097460211900E-004  2.589516767479100E-004  2.653477831635800E-004 
 2.719018734077200E-004  2.786178496808900E-004  2.854997105680100E-004  2.925515534190400E-004 
 2.997775767884900E-004  3.071820829351700E-004  3.147694803836700E-004  3.225442865491400E-004 
 3.305111304269100E-004  3.386747553484500E-004  3.470400218055600E-004  3.556119103441500E-004 
 3.643955245296600E-004  3.733960939855400E-004  3.826189775069800E-004  3.920696662514000E-004 
 4.017537870078100E-004  4.116771055469100E-004  4.218455300539100E-004  4.322651146462500E-004 
 4.429420629780100E-004  4.538827319335600E-004  4.650936354123200E-004  4.765814482070100E-004 
 4.883530099777200E-004  5.004153293241700E-004  5.127755879584800E-004  5.254411449810500E-004 
 5.384195412620800E-004  5.517185039312600E-004  5.653459509783601E-004  5.793099959675300E-004 
 5.936189528679200E-004  6.082813410037600E-004  6.233058901265500E-004  6.387015456126800E-004 
 6.544774737893100E-004  6.706430673919100E-004  6.872079511564900E-004  7.041819875500500E-004 
 7.215752826425400E-004  7.393981921238100E-004  7.576613274692700E-004  7.763755622577600E-004 
 7.955520386455300E-004  8.152021740000700E-004  8.353376676978700E-004  8.559705080900100E-004 
 8.771129796398300E-004  8.987776702369400E-004  9.209774786917900E-004  9.437256224154800E-004 
 9.670356452891400E-004  9.909214257277799E-004  1.015397184943300E-003  1.040477495411400E-003 
 1.066177289548000E-003  1.092511868599900E-003  1.119496911754300E-003  1.147148485474600E-003 
 1.175483053065800E-003  1.204517484476500E-003  1.234269066343100E-003  1.264755512281800E-003 
 1.295994973435200E-003  1.328006049279000E-003  1.360807798696200E-003  1.394419751324000E-003 
 1.428861919181700E-003  1.464154808585500E-003  1.500319432357500E-003  1.537377322336800E-003 
 1.575350542198500E-003  1.614261700590800E-003  1.654133964595400E-003  1.694991073520900E-003 
 1.736857353036900E-003  1.779757729656900E-003  1.823717745579400E-003  1.868763573895200E-003 
 1.914922034170400E-003  1.962220608414400E-003  2.010687457442300E-003  2.060351437641100E-003 
 2.111242118150800E-003  2.163389798469100E-003  2.216825526491300E-003  2.271581116995700E-003 
 2.327689170585500E-003  2.385183093098900E-003  2.444097115498500E-003  2.504466314251300E-003 
 2.566326632213300E-003  2.629714900028900E-003  2.694668858059700E-003  2.761227178853700E-003 
 2.829429490171400E-003  2.899316398578700E-003  2.970929513623500E-003  3.044311472610000E-003 
 3.119505965983500E-003  3.196557763343300E-003  3.275512740097900E-003  3.356417904778300E-003 
 3.439321427026300E-003  3.524272666273900E-003  3.611322201130800E-003  3.700521859498800E-003 
 3.791924749428400E-003  3.885585290739300E-003  3.981559247420500E-003  4.079903760831800E-003 
 4.180677383724400E-003  4.283940115102400E-003  4.389753435945400E-003  4.498180345813200E-003 
 4.609285400354800E-003  4.723134749743600E-003  4.839796178062300E-003  4.959339143660400E-003 
 5.081834820508800E-003  5.207356140575400E-003  5.335977837247600E-003  5.467776489827600E-003 
 5.602830569126300E-003  5.741220484183800E-003  5.883028630143100E-003  6.028339437307600E-003 
 6.177239421409100E-003  6.329817235117900E-003  6.486163720825400E-003  6.646371964729700E-003 
 6.810537352258600E-003  6.978757624859300E-003  7.151132938193400E-003  7.327765921766700E-003 
 7.508761740034400E-003  7.694228155013200E-003  7.884275590442099E-003  8.079017197526000E-003 
 8.278568922304899E-003  8.483049574685800E-003  8.692580899180499E-003  8.907287647390299E-003 
 9.127297652280800E-003  9.352741904292200E-003  9.583754629328201E-003  9.820473368672601E-003 
 1.006303906087900E-002  1.031159612568300E-002  1.056629254998700E-002  1.082727997597200E-002 
 1.109471379137800E-002  1.136875322202500E-002  1.164956142660900E-002  1.193730559384600E-002 
 1.223215704201400E-002  1.253429132095200E-002  1.284388831658000E-002  1.316113235799900E-002 
 1.348621232724200E-002  1.381932177172500E-002  1.416065901948600E-002  1.451042729726700E-002 
 1.486883485151000E-002  1.523609507234200E-002  1.561242662062900E-002  1.599805355815900E-002 
 1.639320548104500E-002  1.679811765642700E-002  1.721303116254100E-002  1.763819303225600E-002 
 1.807385640015200E-002  1.852028065323600E-002  1.897773158537100E-002  1.944648155553000E-002 
 1.992680964995100E-002  2.041900184830500E-002  2.092335119395800E-002  2.144015796844900E-002 
 2.196972987027000E-002  2.251238219806500E-002  2.306843803835700E-002  2.363822845790500E-002 
 2.422209270081500E-002  2.482037839052500E-002  2.543344173677100E-002  2.606164774766900E-002 
 2.670537044703700E-002  2.736499309707900E-002  2.804090842657700E-002  2.873351886471300E-002 
 2.944323678067100E-002  3.017048472915400E-002  3.091569570196400E-002  3.167931338580300E-002 
 3.246179242643200E-002  3.326359869936500E-002  3.408520958723900E-002  3.492711426404400E-002 
 3.578981398636600E-002  3.667382239182900E-002  3.757966580490700E-002  3.850788355028800E-002 
 3.945902827398000E-002  4.043366627234800E-002  4.143237782927500E-002  4.245575756165800E-002 
 4.350441477343100E-002  4.457897381833500E-002  4.568007447164700E-002  4.680837231109700E-002 
 4.796453910718100E-002  4.914926322312900E-002  5.036325002474000E-002  5.160722230035100E-002 
 5.288192069117000E-002  5.418810413224100E-002  5.552655030430800E-002  5.689805609682400E-002 
 5.830343808241600E-002  5.974353300305100E-002  6.121919826822700E-002  6.273131246545199E-002 
 6.428077588334900E-002  6.586851104766700E-002  6.749546327054499E-002  6.916260121332700E-002 
 7.087091746329600E-002  7.262142912463999E-002  7.441517842401800E-002  7.625323333109200E-002 
 7.813668819437000E-002  8.006666439277101E-002  8.204431100327200E-002  8.407080548505300E-002 
 8.614735438053400E-002  8.827519403373300E-002  9.045559132636601E-002  9.268984443212699E-002 
 9.497928358960100E-002  9.732527189426400E-002  9.972920611005200E-002  1.021925175009700E-001 
 1.047166726832400E-001  1.073031744985200E-001  1.099535629086300E-001  1.126694159124800E-001 
 1.154523504855200E-001  1.183040235425100E-001  1.212261329240100E-001  1.242204184072300E-001 
 1.272886627418900E-001  1.304326927116100E-001  1.336543802215900E-001  1.369556434130600E-001 
 1.403384478053700E-001  1.438048074661600E-001  1.473567862105700E-001  1.509964988299700E-001 
 1.547261123510700E-001  1.585478473261500E-001  1.624639791551000E-001  1.664768394402300E-001 
 1.705888173744100E-001  1.748023611635500E-001  1.791199794842900E-001  1.835442429775600E-001 
 1.880777857791000E-001  1.927233070878500E-001  1.974835727729200E-001  2.023614170204100E-001 
 2.073597440208100E-001  2.124815296981200E-001  2.177298234816700E-001  2.231077501216700E-001 
 2.286185115496700E-001  2.342653887849500E-001  2.400517438879400E-001  2.459810219619700E-001 
 2.520567532044300E-001  2.582825550085800E-001  2.646621341172900E-001  2.711992888299900E-001 
 2.778979112640900E-001  2.847619896723100E-001  2.917956108172200E-001  2.990029624044000E-001 
 3.063883355757900E-001  3.139561274645100E-001  3.217108438128900E-001  3.296571016550600E-001 
 3.377996320659400E-001  3.461432829779700E-001  3.546930220675300E-001  3.634539397126000E-001 
 3.724312520235000E-001  3.816303039484800E-001  3.910565724560100E-001  4.007156697956700E-001 
 4.106133468396200E-001  4.207554965065600E-001  4.311481572702700E-001  4.417975167548500E-001 
 4.527099154186900E-001  4.638918503295400E-001  4.753499790326700E-001  4.870911235147800E-001 
 4.991222742656000E-001  5.114505944399600E-001  5.240834241226200E-001  5.370282846984500E-001 
 5.502928833305000E-001  5.638851175487700E-001  5.778130799522200E-001  5.920850630270400E-001 
 6.067095640838100E-001  6.216952903166800E-001  6.370511639874999E-001  6.527863277379899E-001 
 6.689101500331200E-001  6.854322307389400E-001  7.023624068381900E-001  7.197107582870900E-001 
 7.374876140167900E-001  7.557035580830000E-001  7.743694359676500E-001  7.934963610360500E-001 
 8.130957211536400E-001  8.331791854661400E-001  8.537587113471500E-001  8.748465515174200E-001 
 8.964552613399100E-001  9.185977062950000E-001  9.412870696404900E-001  9.645368602606100E-001 
 9.883609207090400E-001  1.012773435450600E+000  1.037788939306200E+000  1.063422326107000E+000 
 1.089688857561900E+000  1.116604172343700E+000  1.144184295400600E+000  1.172445647497000E+000 
 1.201405054990100E+000  1.231079759848400E+000  1.261487429916600E+000  1.292646169435600E+000 
 1.324574529820600E+000  1.357291520707200E+000  1.390816621268700E+000  1.425169791814000E+000 
 1.460371485671800E+000  1.496442661367900E+000  1.533404795103700E+000  1.571279893542800E+000 
 1.610090506913300E+000  1.649859742434000E+000  1.690611278072100E+000  1.732369376640500E+000 
 1.775158900243500E+000  1.819005325079600E+000  1.863934756609000E+000  1.909973945097300E+000 
 1.957150301541200E+000  2.005491913989200E+000  2.055027564264800E+000  2.105786745102100E+000 
 2.157799677706100E+000  2.211097329745500E+000  2.265711433790200E+000  2.321674506204800E+000 
 2.379019866508100E+000  2.437781657210800E+000  2.497994864143900E+000  2.559695337288300E+000 
 2.622919812119300E+000  2.687705931478600E+000  2.754092267986200E+000  2.822118347005400E+000 
 2.891824670176500E+000  2.963252739529800E+000  3.036445082196200E+000  3.111445275726500E+000 
 3.188297974036900E+000  3.267048933995600E+000  3.347745042665300E+000  3.430434345219100E+000 
 3.515166073546000E+000  3.601990675562600E+000  3.690959845249000E+000  3.782126553426700E+000 
 3.875545079296300E+000  3.971271042754900E+000  4.069361437511000E+000  4.169874665017500E+000 
 4.272870569243400E+000  4.378410472303700E+000  4.486557210969700E+000  4.597375174080600E+000 
 4.710930340880400E+000  4.827290320300100E+000  4.946524391211600E+000  5.068703543674500E+000 
 5.193900521203200E+000  5.322189864077000E+000  5.453647953719700E+000  5.588353058176500E+000 
 5.726385378713500E+000  5.867827097567700E+000  6.012762426877600E+000  6.161277658821500E+000 
 6.313461216994400E+000  6.469403709054200E+000  6.629197980667800E+000  6.792939170790300E+000 
 6.960724768308800E+000  7.132654670086000E+000  7.308831240437200E+000  7.489359372076000E+000 
 7.674346548566200E+000  7.863902908315800E+000  8.058141310151200E+000  8.257177400512001E+000 
 8.461129682304600E+000  8.670119585457501E+000  8.884271539218300E+000  9.103713046237001E+000 
 9.328574758479100E+000  9.558990555013500E+000  9.795097621722300E+000  1.003703653297900E+001 
 1.028495133534300E+001  1.053898963332600E+001  1.079930267727000E+001  1.106604545339800E+001 
 1.133937677609700E+001  1.161945938246700E+001  1.190646002921400E+001  1.220054959193500E+001 
 1.250190316685600E+001  1.281070017507700E+001  1.312712446940200E+001  1.345136444379600E+001 
 1.378361314555800E+001  1.412406839025300E+001  1.447293287949200E+001  1.483041432161600E+001 
 1.519672555536000E+001  1.557208467657700E+001  1.595671516808800E+001  1.635084603274000E+001 
 1.675471192974900E+001  1.716855331441400E+001  1.759261658128000E+001  1.802715421083700E+001 
 1.847242491984500E+001  1.892869381536500E+001  1.939623255260500E+001  1.987531949665400E+001 
 2.036623988822100E+001  2.086928601346000E+001  2.138475737799300E+001  2.191296088522900E+001 
 2.245421101909500E+001  2.300883003126600E+001  2.357714813303800E+001  2.415950369192500E+001 
 2.475624343311500E+001  2.536772264591300E+001  2.599430539526700E+001  2.663636473853000E+001 
 2.729428294757200E+001  2.796845173637700E+001  2.865927249426500E+001  2.936715652487400E+001 
 3.009252529103800E+001  3.083581066572700E+001  3.159745518917000E+001  3.237791233234300E+001 
 3.317764676695200E+001  3.399713464209500E+001  3.483686386775500E+001  3.569733440528900E+001 
 3.657905856509900E+001  3.748256131165700E+001  3.840838057605500E+001  3.935706757628400E+001 
 4.032918714541800E+001  4.132531806791000E+001  4.234605342418700E+001  4.339200094376400E+001 
 4.446378336707500E+001  4.556203881624200E+001  4.668742117500300E+001  4.784060047802600E+001 
 4.902226330983300E+001  5.023311321358600E+001  5.147387110996200E+001  5.274527572637800E+001 
 5.404808403681900E+001  5.538307171252900E+001  5.675103358382800E+001  5.815278411334900E+001 
 5.958915788094800E+001  6.106101008060800E+001  6.256921702959900E+001  6.411467669023000E+001 
 6.569830920447799E+001  6.732105744182900E+001  6.898388756064200E+001  7.068778958339000E+001 
 7.243377798610000E+001  7.422289230235600E+001  7.605619774222500E+001  7.793478582645800E+001 
 7.985977503637100E+001
    </PP_R>
    <PP_RAB type="real" size="565" columns="4">
 2.056632402523195E-006  2.107431222865502E-006  2.159484774070298E-006  2.212824047989818E-006 
 2.267480801975168E-006  2.323487577783965E-006  2.380877720955213E-006  2.439685400662814E-006 
 2.499945630059160E-006  2.561694287121722E-006  2.624968136013508E-006  2.689804848973207E-006 
 2.756243028742613E-006  2.824322231552779E-006  2.894082990672109E-006  2.965566840541500E-006 
 3.038816341502901E-006  3.113875105138104E-006  3.190787820235104E-006  3.269600279394957E-006 
 3.350359406295968E-006  3.433113283631318E-006  3.517911181737208E-006  3.604803587925913E-006 
 3.693842236547665E-006  3.785080139790383E-006  3.878571619243370E-006  3.974372338238629E-006 
 4.072539334993232E-006  4.173131056567368E-006  4.276207393664688E-006  4.381829716288101E-006 
 4.490060910280559E-006  4.600965414764481E-006  4.714609260509120E-006  4.831060109243654E-006 
 4.950387293942130E-006  5.072661860102469E-006  5.197956608046832E-006  5.326346136265588E-006 
 5.457906885831442E-006  5.592717185911578E-006  5.730857300403397E-006  5.872409475723414E-006 
 6.017457989773917E-006  6.166089202121341E-006  6.318391605413654E-006  6.474455878067290E-006 
 6.634374938255541E-006  6.798243999230436E-006  6.966160626011478E-006  7.138224793473963E-006 
 7.314538945872764E-006  7.495208057835926E-006  7.680339696864506E-006  7.870044087376896E-006 
 8.064434176335258E-006  8.263625700490625E-006  8.467737255292823E-006  8.676890365498377E-006 
 8.891209557526419E-006  9.110822433597258E-006  9.335859747707041E-006  9.566455483475347E-006 
 9.802746933917199E-006  1.004487478318513E-005  1.029298319032959E-005  1.054721987513093E-005 
 1.080773620604661E-005  1.107468729033579E-005  1.134823206640711E-005  1.162853339844751E-005 
 1.191575817338908E-005  1.221007740027180E-005  1.251166631205859E-005  1.282070446996633E-005 
 1.313737587037445E-005  1.346186905437286E-005  1.379437722001582E-005  1.413509833735032E-005 
 1.448423526628267E-005  1.484199587735991E-005  1.520859317553064E-005  1.558424542696635E-005 
 1.596917628901233E-005  1.636361494335104E-005  1.676779623245181E-005  1.718196079939324E-005 
 1.760635523113834E-005  1.804123220534744E-005  1.848685064081957E-005  1.894347585164779E-005 
 1.941137970518357E-005  1.989084078390149E-005  2.038214455126381E-005  2.088558352168010E-005 
 2.140145743466551E-005  2.193007343330190E-005  2.247174624710440E-005  2.302679837940795E-005 
 2.359556029937927E-005  2.417837063877389E-005  2.477557639355267E-005  2.538753313047344E-005 
 2.601460519879463E-005  2.665716594720643E-005  2.731559794610200E-005  2.799029321536996E-005 
 2.868165345778904E-005  2.939009029819582E-005  3.011602552856200E-005  3.085989135911810E-005 
 3.162213067568928E-005  3.240319730337760E-005  3.320355627677124E-005  3.402368411680759E-005 
 3.486406911449266E-005  3.572521162162092E-005  3.660762434867345E-005  3.751183267008739E-005 
 3.843837493703808E-005  3.938780279798286E-005  4.036068152709320E-005  4.135759036081225E-005 
 4.237912284272514E-005  4.342588717694017E-005  4.449850659020997E-005  4.559761970298789E-005 
 4.672388090965140E-005  4.787796076811957E-005  4.906054639909370E-005  5.027234189515072E-005 
 5.151406873996008E-005  5.278646623783648E-005  5.409029195391138E-005  5.542632216517456E-005 
 5.679535232265453E-005  5.819819752502258E-005  5.963569300389205E-005  6.110869462108785E-005 
 6.261807937822855E-005  6.416474593886912E-005  6.574961516356130E-005  6.737363065809944E-005 
 6.903775933535483E-005  7.074299199093970E-005  7.249034389311363E-005  7.428085538727352E-005 
 7.611559251533999E-005  7.799564765046908E-005  7.992214014743616E-005  8.189621700907739E-005 
 8.391905356920102E-005  8.599185419236151E-005  8.811585299091124E-005  9.029231455978844E-005 
 9.252253472941471E-005  9.480784133723171E-005  9.714959501825986E-005  9.954919001521120E-005 
 1.020080550085883E-004  1.045276539673006E-004  1.071094870202922E-004  1.097550913496921E-004 
 1.124660421060299E-004  1.152439533460497E-004  1.180904789936979E-004  1.210073138248413E-004 
 1.239961944763146E-004  1.270589004798804E-004  1.301972553217331E-004  1.334131275281796E-004 
 1.367084317781246E-004  1.400851300430462E-004  1.435452327551085E-004  1.470908000041588E-004 
 1.507239427642616E-004  1.544468241505387E-004  1.582616607070592E-004  1.621707237265214E-004 
 1.661763406025684E-004  1.702808962154497E-004  1.744868343519731E-004  1.787966591604650E-004 
 1.832129366417300E-004  1.877382961767795E-004  1.923754320923477E-004  1.971271052650283E-004 
 2.019961447650746E-004  2.069854495407713E-004  2.120979901444273E-004  2.173368105009957E-004 
 2.227050297203693E-004  2.282058439544640E-004  2.338425283001389E-004  2.396184387491521E-004 
 2.455370141862607E-004  2.516017784366684E-004  2.578163423640451E-004  2.641844060204448E-004 
 2.707097608491374E-004  2.773962919421102E-004  2.842479803530799E-004  2.912689054677951E-004 
 2.984632474328497E-004  3.058352896444473E-004  3.133894212986770E-004  3.211301400047415E-004 
 3.290620544628690E-004  3.371898872081048E-004  3.455184774221302E-004  3.540527838144494E-004 
 3.627978875746786E-004  3.717589953977659E-004  3.809414425840945E-004  3.903506962159329E-004 
 3.999923584124536E-004  4.098721696652458E-004  4.199960122559836E-004  4.303699137587121E-004 
 4.410000506285347E-004  4.518927518790654E-004  4.630545028504801E-004  4.744919490708951E-004 
 4.862119002129318E-004  4.982213341481964E-004  5.105274011016535E-004  5.231374279088702E-004 
 5.360589223782268E-004  5.492995777609527E-004  5.628672773316432E-004  5.767700990817490E-004 
 5.910163205290620E-004  6.056144236461267E-004  6.205730999101868E-004  6.359012554779625E-004 
 6.516080164882822E-004  6.677027344955473E-004  6.841949920375910E-004  7.010946083409084E-004 
 7.184116451669189E-004  7.361564128025521E-004  7.543394761987727E-004  7.729716612608944E-004 
 7.920640612940302E-004  8.116280436079960E-004  8.316752562851057E-004  8.522176351153526E-004 
 8.732674107027046E-004  8.948371157470556E-004  9.169395925060035E-004  9.395880004408970E-004 
 9.627958240517842E-004  9.865768809058802E-004  1.010945329864256E-003  1.035915679511900E-003 
 1.061502796795845E-003  1.087721915876709E-003  1.114588647198843E-003  1.142118986784662E-003 
 1.170329325758241E-003  1.199236460104484E-003  1.228857600669058E-003  1.259210383405582E-003 
 1.290312879875708E-003  1.322183608008616E-003  1.354841543126445E-003  1.388306129241658E-003 
 1.422597290633938E-003  1.457735443712579E-003  1.493741509172296E-003  1.530636924448846E-003 
 1.568443656482741E-003  1.607184214797847E-003  1.646881664903369E-003  1.687559642026471E-003 
 1.729242365184521E-003  1.771954651604593E-003  1.815721931499211E-003  1.860570263207261E-003 
 1.906526348708481E-003  1.953617549521582E-003  2.001871902994754E-003  2.051318138998729E-003 
 2.101985697032002E-003  2.153904743748688E-003  2.207106190919276E-003  2.261621713834975E-003 
 2.317483770166711E-003  2.374725619289825E-003  2.433381342086276E-003  2.493485861235800E-003 
 2.555074962008227E-003  2.618185313569928E-003  2.682854490815021E-003  2.749120996738319E-003 
 2.817024285357798E-003  2.886604785206078E-003  2.957903923400668E-003  3.030964150308590E-003 
 3.105828964821247E-003  3.182542940252218E-003  3.261151750876527E-003  3.341702199123097E-003 
 3.424242243441618E-003  3.508821026854562E-003  3.595488906217768E-003  3.684297482201321E-003 
 3.775299630011687E-003  3.868549530873185E-003  3.964102704285609E-003  4.062016041081439E-003 
 4.162347837296305E-003  4.265157828877330E-003  4.370507227250608E-003  4.478458755763894E-003 
 4.589076687031123E-003  4.702426881200943E-003  4.818576825166609E-003  4.937595672748197E-003 
 5.059554285864977E-003  5.184525276725744E-003  5.312583051061027E-003  5.443803852422302E-003 
 5.578265807577004E-003  5.716048973024234E-003  5.857235382657974E-003  6.001909096609574E-003 
 6.150156251295814E-003  6.302065110702835E-003  6.457726118937149E-003  6.617231954074968E-003 
 6.780677583340601E-003  6.948160319649039E-003  7.119779879544467E-003  7.295638442569086E-003 
 7.475840712100574E-003  7.660493977689409E-003  7.849708178938500E-003  8.043595970958075E-003 
 8.242272791440739E-003  8.445856929389357E-003  8.654469595545377E-003  8.868234994555396E-003 
 9.087280398920886E-003  9.311736224774219E-003  9.541736109526204E-003  9.777416991431418E-003 
 1.001891919111970E-002  1.026638649514039E-002  1.051996624157031E-002  1.077980940773720E-002 
 1.104607070010819E-002  1.131890864640107E-002  1.159848568996694E-002  1.188496828650920E-002 
 1.217852700318610E-002  1.247933662016478E-002  1.278757623468268E-002  1.310342936767938E-002 
 1.342708407306101E-002  1.375873304966578E-002  1.409857375599242E-002  1.444680852776543E-002 
 1.480364469840129E-002  1.516929472245180E-002  1.554397630209631E-002  1.592791251675806E-002 
 1.632133195592202E-002  1.672446885523335E-002  1.713756323595756E-002  1.756086104788563E-002 
 1.799461431576863E-002  1.843908128936800E-002  1.889452659721538E-002  1.936122140416658E-002 
 1.983944357284948E-002  2.032947782909899E-002  2.083161593147765E-002  2.134615684498503E-002 
 2.187340691905640E-002  2.241368006995695E-002  2.296729796768497E-002  2.353459022748679E-002 
 2.411589460610554E-002  2.471155720287749E-002  2.532193266578784E-002  2.594738440263125E-002 
 2.658828479737764E-002  2.724501543187338E-002  2.791796731304091E-002  2.860754110567315E-002 
 2.931414737098142E-002  3.003820681104575E-002  3.078015051927722E-002  3.154042023710484E-002 
 3.231946861695988E-002  3.311775949179956E-002  3.393576815124779E-002  3.477398162458271E-002 
 3.563289897070976E-002  3.651303157528645E-002  3.741490345519634E-002  3.833905157054063E-002 
 3.928602614433280E-002  4.025639099009640E-002  4.125072384755130E-002  4.226961672658628E-002 
 4.331367625973247E-002  4.438352406334995E-002  4.547979710771308E-002  4.660314809627499E-002 
 4.775424585425291E-002  4.893377572685131E-002  5.014243998730616E-002  5.138095825499164E-002 
 5.265006792388939E-002  5.395052460161091E-002  5.528310255927035E-002  5.664859519248390E-002 
 5.804781549373926E-002  5.948159653643341E-002  6.095079197088313E-002  6.245627653256507E-002 
 6.399894656291891E-002  6.557972054302187E-002  6.719953964043643E-002  6.885936826955377E-002 
 7.056019466581337E-002  7.230303147405751E-002  7.408891635146707E-002  7.591891258534962E-002 
 7.779410972620666E-002  7.971562423644370E-002  8.168460015508407E-002  8.370220977891384E-002 
 8.576965436045272E-002  8.788816482315624E-002  9.005900249428829E-002  9.228345985589842E-002 
 9.456286131433815E-002  9.689856398880185E-002  9.929195851932657E-002  1.017444698947534E-001 
 1.042575583011530E-001  1.068327199911912E-001  1.094714881749760E-001  1.121754339328967E-001 
 1.149461671510395E-001  1.177853374796690E-001  1.206946353154190E-001  1.236757928077092E-001 
 1.267305848900581E-001  1.298608303368446E-001  1.330683928461646E-001  1.363551821494630E-001 
 1.397231551485557E-001  1.431743170807244E-001  1.467107227126178E-001  1.503344775636200E-001 
 1.540477391594417E-001  1.578527183166808E-001  1.617516804591018E-001  1.657469469664418E-001 
 1.698408965565124E-001  1.740359667014576E-001  1.783346550789855E-001  1.827395210594364E-001 
 1.872531872296026E-001  1.918783409541742E-001  1.966177359757423E-001  2.014741940543447E-001 
 2.064506066474859E-001  2.115499366316782E-001  2.167752200664807E-001  2.221295680021229E-001 
 2.276161683317765E-001  2.332382876895705E-001  2.389992733955021E-001  2.449025554483749E-001 
 2.509516485679356E-001  2.571501542875643E-001  2.635017630984878E-001  2.700102566470066E-001 
 2.766795099861893E-001  2.835134938828580E-001  2.905162771817662E-001  2.976920292281415E-001 
 3.050450223500817E-001  3.125796344021203E-001  3.203003513718673E-001  3.282117700507468E-001 
 3.363186007710061E-001  3.446256702100430E-001  3.531379242642250E-001  3.618604309935647E-001 
 3.707983836391079E-001  3.799571037149843E-001  3.893420441767333E-001  3.989587926679042E-001 
 4.088130748468093E-001  4.189107577955304E-001  4.292578535130793E-001  4.398605224948374E-001 
 4.507250774004678E-001  4.618579868122552E-001  4.732658790865297E-001  4.849555462999586E-001 
 4.969339482935589E-001  5.092082168164084E-001  5.217856597717868E-001  5.346737655681395E-001 
 5.478802075776931E-001  5.614128487048464E-001  5.752797460678495E-001  5.894891557957488E-001 
 6.040495379438905E-001  6.189695615311059E-001  6.342581097009230E-001  6.499242850105336E-001 
 6.659774148503013E-001  6.824270569971030E-001  6.992830053049190E-001  7.165552955359665E-001 
 7.342542113356954E-001  7.523902903556958E-001  7.709743305274703E-001  7.900173964915111E-001 
 8.095308261848546E-001  8.295262375916030E-001  8.500155356601219E-001  8.710109193909379E-001 
 8.925248890998784E-001  9.145702538606468E-001  9.371601391310066E-001  9.603079945675532E-001 
 9.840276020333665E-001  1.008333083803595E+000  1.033238910973534E+000  1.058759912074571E+000 
 1.084911281902813E+000  1.111708590565819E+000  1.139167792752790E+000  1.167305237233794E+000 
 1.196137676593463E+000  1.225682277205325E+000  1.255956629452307E+000  1.286978758199777E+000 
 1.318767133527299E+000  1.351340681725437E+000  1.384718796564044E+000  1.418921350839187E+000 
 1.453968708204897E+000  1.489881735297572E+000  1.526681814159422E+000  1.564390854969157E+000 
 1.603031309086879E+000  1.642626182421334E+000  1.683199049127137E+000  1.724774065640581E+000 
 1.767375985061909E+000  1.811030171892922E+000  1.855762617138697E+000  1.901599953782024E+000 
 1.948569472640428E+000
    </PP_RAB>
  </PP_MESH>
  <PP_LOCAL type="real" size="565" columns="4">
-4.415190487359800E+000 -4.415190572102400E+000 -4.415190654788800E+000 -4.415190735468200E+000 
-4.415190814188000E+000 -4.415190890995200E+000 -4.415190965934600E+000 -4.415191039050600E+000 