<UPF version="2.0.1">
  <PP_INFO>
    Generated using FHI98PP, converted with fhi2upf.x v.5.0.2
    Author: unknown
    Generation date: unknown
    Pseudopotential type: SL
    Element:  W
    Functional: PBE

    Suggested minimum cutoff for wavefunctions:   0. Ry
    Suggested minimum cutoff for charge density:   0. Ry
    The Pseudo was generated with a Scalar-Relativistic Calculation
    L component and cutoff radius for Local Potential:  3   0.0000

    Valence configuration: 
    nl pn  l   occ       Rcut    Rcut US       E pseu
    6s  6  0  2.00      0.000      0.000     0.000000
    6p  6  1  0.00      0.000      0.000     0.000000
    5d  5  2  3.75      0.000      0.000     0.000000
    5f  5  3  0.00      0.000      0.000     0.000000

    Generation configuration: not available.
    Comment:
    molybdenum, fhi98PP : Trouiller-Martins-type, GGA Perdew/Burke/Ernzerhof (1996),
  </PP_INFO>
  <!--                               -->
  <!-- END OF HUMAN READABLE SECTION -->
  <!--                               -->
  <PP_HEADER generated="Generated using FHI98PP, converted with fhi2upf.x v.5.0.2"
             author="unknown"
             date="unknown"
             comment="molybdenum, fhi98PP : Trouiller-Martins-type, GGA Perdew/Burke/Ernzerhof (1996),"
             element=" W"
             pseudo_type="SL"
             relativistic="scalar"
             is_ultrasoft="F"
             is_paw="F"
             is_coulomb="F"
             has_so="F"
             has_wfc="F"
             has_gipaw="F"
             paw_as_gipaw="F"
             core_correction="F"
             functional="PBE"
             z_valence="5.750000000000000E+000"
             total_psenergy="0.000000000000000E+000"
             wfc_cutoff="0.000000000000000E+000"
             rho_cutoff="0.000000000000000E+000"
             l_max="2"
             l_max_rho="0"
             l_local="3"
             mesh_size="563"
             number_of_wfc="4"
             number_of_proj="3"/>
  <PP_MESH dx="2.439988682353512E-002" mesh="563" xmin="-5.075173815233832E+000" rmax="7.646870593336899E+001"
zmesh="7.375000000000000E+001">
    <PP_R type="real" size="563" columns="4">
 8.474576271186401E-005  8.683898305084699E-005  8.898390593220301E-005  9.118180840872900E-005 
 9.343399907642401E-005  9.574181885361200E-005  9.810664177929601E-005  1.005298758312400E-004 
 1.030129637642800E-004  1.055573839692500E-004  1.081646513532900E-004  1.108363182417200E-004 
 1.135739753022900E-004  1.163792524922600E-004  1.192538200288200E-004  1.221993893835300E-004 
 1.252177143013000E-004  1.283105918445400E-004  1.314798634631000E-004  1.347274160906400E-004 
 1.380551832680800E-004  1.414651462948000E-004  1.449593354082900E-004  1.485398309928700E-004 
 1.522087648183900E-004  1.559683213094100E-004  1.598207388457500E-004  1.637683110952400E-004 
 1.678133883792900E-004  1.719583790722600E-004  1.762057510353500E-004  1.805580330859200E-004 
 1.850178165031400E-004  1.895877565707700E-004  1.942705741580700E-004  1.990690573397700E-004 
 2.039860630560600E-004  2.090245188135500E-004  2.141874244282400E-004  2.194778538116200E-004 
 2.248989568007700E-004  2.304539610337500E-004  2.361461738712800E-004  2.419789843659000E-004 
 2.479558652797400E-004  2.540803751521500E-004  2.603561604184100E-004  2.667869575807400E-004 
 2.733765954329900E-004  2.801289973401800E-004  2.870481835744800E-004  2.941382737087700E-004 
 3.014034890693800E-004  3.088481552493900E-004  3.164767046840500E-004  3.242936792897500E-004 
 3.323037331682000E-004  3.405116353774600E-004  3.489222727712800E-004  3.575406529087300E-004 
 3.663719070355800E-004  3.754212931393600E-004  3.846941990799000E-004  3.941961457971700E-004 
 4.039327905983600E-004  4.139099305261400E-004  4.241335058101400E-004  4.346096034036500E-004 
 4.453444606077200E-004  4.563444687847300E-004  4.676161771637100E-004  4.791662967396600E-004 
 4.910017042691300E-004  5.031294463645700E-004  5.155567436897800E-004  5.282909952589200E-004 
 5.413397828418100E-004  5.547108754780000E-004  5.684122341023100E-004  5.824520162846400E-004 
 5.968385810868700E-004  6.115804940397100E-004  6.266865322424900E-004  6.421656895888800E-004 
 6.580271821217300E-004  6.742804535201400E-004  6.909351807220800E-004  7.080012796859200E-004 
 7.254889112941600E-004  7.434084874031300E-004  7.617706770419800E-004  7.805864127649200E-004 
 7.998668971602100E-004  8.196236095200700E-004  8.398683126752200E-004  8.606130599983000E-004 
 8.818702025802500E-004  9.036523965839899E-004  9.259726107796100E-004  9.488441342658700E-004 
 9.722805843822300E-004  9.962959148164701E-004  1.020904423912400E-003  1.046120763183100E-003 
 1.071959946033700E-003  1.098437356700700E-003  1.125568759411200E-003  1.153370307768700E-003 
 1.181858554370600E-003  1.211050460663500E-003  1.240963407041900E-003  1.271615203195900E-003 
 1.303024098714800E-003  1.335208793953100E-003  1.368188451163700E-003  1.401982705907400E-003 
 1.436611678743400E-003  1.472095987208300E-003  1.508456758092400E-003  1.545715640017200E-003 
 1.583894816325700E-003  1.623017018288900E-003  1.663105538640600E-003  1.704184245445100E-003 
 1.746277596307600E-003  1.789410652936400E-003  1.833609096063900E-003  1.878899240736700E-003 
 1.925308051982900E-003  1.972863160866800E-003  2.021592880940200E-003  2.071526225099500E-003 
 2.122692922859400E-003  2.175123438054100E-003  2.228848986974000E-003  2.283901556952300E-003 
 2.340313925409000E-003  2.398119679366600E-003  2.457353235446900E-003  2.518049860362500E-003 
 2.580245691913400E-003  2.643977760503700E-003  2.709284011188100E-003  2.776203326264500E-003 
 2.844775548423200E-003  2.915041504469300E-003  2.987043029629600E-003  3.060822992461500E-003 
 3.136425320375300E-003  3.213895025788600E-003  3.293278232925500E-003  3.374622205278800E-003 
 3.457975373749200E-003  3.543387365480800E-003  3.630909033408200E-003  3.720592486533300E-003 
 3.812491120950700E-003  3.906659651638200E-003  4.003154145033700E-003  4.102032052416000E-003 
 4.203352244110700E-003  4.307175044540200E-003  4.413562268140400E-003  4.522577256163400E-003 
 4.634284914390700E-003  4.748751751776100E-003  4.866045920045000E-003  4.986237254270100E-003 
 5.109397314450600E-003  5.235599428117500E-003  5.364918733992000E-003  5.497432226721600E-003 
 5.633218802721600E-003  5.772359307148800E-003  5.914936582035400E-003  6.061035515611700E-003 
 6.210743092847300E-003  6.364148447240600E-003  6.521342913887500E-003  6.682420083860500E-003 
 6.847475859931800E-003  7.016608513672100E-003  7.189918743959900E-003  7.367509736935700E-003 
 7.549487227438000E-003  7.735959561955700E-003  7.927037763136000E-003  8.122835595885501E-003 
 8.323469635103799E-003  8.529059335090900E-003  8.739727100667600E-003  8.955598360054100E-003 
 9.176801639547500E-003  9.403468640044300E-003  9.635734315453399E-003  9.873736953045100E-003 
 1.011761825578500E-002  1.036752342670300E-002  1.062360125534300E-002  1.088600420635000E-002 
 1.115488851024700E-002  1.143041425645000E-002  1.171274548858400E-002  1.200205030215200E-002 
 1.229850094461500E-002  1.260227391794700E-002  1.291355008372000E-002  1.323251477078800E-002 
 1.355935788562700E-002  1.389427402540200E-002  1.423746259382900E-002  1.458912791989700E-002 
 1.494947937951800E-002  1.531873152019200E-002  1.569710418874100E-002  1.608482266220300E-002 
 1.648211778195900E-002  1.688922609117400E-002  1.730638997562600E-002  1.773385780802400E-002 
 1.817188409588200E-002  1.862072963305000E-002  1.908066165498600E-002  1.955195399786500E-002 
 2.003488726161200E-002  2.052974897697400E-002  2.103683377670500E-002  2.155644357099000E-002 
 2.208888772719300E-002  2.263448325405500E-002  2.319355499043000E-002  2.376643579869300E-002 
 2.435346676292100E-002  2.495499739196500E-002  2.557138582754700E-002  2.620299905748700E-002 
 2.685021313420700E-002  2.751341339862200E-002  2.819299470956800E-002  2.888936167889400E-002 
 2.960292891236300E-002  3.033412125649900E-002  3.108337405153400E-002  3.185113339060700E-002 
 3.263785638535500E-002  3.344401143807300E-002  3.427007852059400E-002  3.511654946005200E-002 
 3.598392823171600E-002  3.687273125903900E-002  3.778348772113700E-002  3.871673986784900E-002 
 3.967304334258500E-002  4.065296751314700E-002  4.165709581072200E-002  4.268602607724700E-002 
 4.374037092135400E-002  4.482075808311200E-002  4.592783080776500E-002  4.706224822871700E-002 
 4.822468575996600E-002  4.941583549823700E-002  5.063640663504300E-002  5.188712587892900E-002 
 5.316873788813900E-002  5.448200571397600E-002  5.582771125511100E-002  5.720665572311200E-002 
 5.861966011947300E-002  6.006756572442400E-002  6.155123459781700E-002  6.307155009238299E-002 
 6.462941737966500E-002  6.622576398894300E-002  6.786154035946999E-002  6.953772040634899E-002 
 7.125530210038500E-002  7.301530806226500E-002  7.481878617140300E-002  7.666681018983700E-002 
 7.856048040152500E-002  8.050092426744300E-002  8.248929709684900E-002  8.452678273514100E-002 
 8.661459426869900E-002  8.875397474713601E-002  9.094619792339000E-002  9.319256901209801E-002 
 9.549442546669699E-002  9.785313777572401E-002  1.002701102787800E-001  1.027467820026700E-001 
 1.052846275181400E-001  1.078851578178300E-001  1.105499212159400E-001  1.132805042699700E-001 
 1.160785327254400E-001  1.189456724837600E-001  1.218836305941000E-001  1.248941562697800E-001 
 1.279790419296400E-001  1.311401242653000E-001  1.343792853346600E-001  1.376984536824200E-001 
 1.410996054883800E-001  1.445847657439400E-001  1.481560094578200E-001  1.518154628914300E-001 
 1.555653048248400E-001  1.594077678540200E-001  1.633451397200100E-001  1.673797646711000E-001 
 1.715140448584700E-001  1.757504417664800E-001  1.800914776781100E-001  1.845397371767600E-001 
 1.890978686850200E-001  1.937685860415400E-001  1.985546701167700E-001  2.034589704686500E-001 
 2.084844070392300E-001  2.136339718931000E-001  2.189107309988600E-001  2.243178260545300E-001 
 2.298584763580800E-001  2.355359807241200E-001  2.413537194480100E-001  2.473151563183700E-001 
 2.534238406794400E-001  2.596834095442200E-001  2.660975897599600E-001  2.726702002270300E-001 
 2.794051541726400E-001  2.863064614807000E-001  2.933782310792800E-001  3.006246733869300E-001 
 3.080501028195900E-001  3.156589403592400E-001  3.234557161861100E-001  3.314450723759100E-001 
 3.396317656635900E-001  3.480206702754800E-001  3.566167808312800E-001  3.654252153178200E-001 
 3.744512181361700E-001  3.837001632241300E-001  3.931775572557700E-001  4.028890429199800E-001 
 4.128404022801100E-001  4.230375602164300E-001  4.334865879537700E-001  4.441937066762300E-001 
 4.551652912311300E-001  4.664078739245400E-001  4.779281484104800E-001  4.897329736762200E-001 
 5.018293781260200E-001  5.142245637657300E-001  5.269259104907500E-001  5.399409804798700E-001 
 5.532775226977200E-001  5.669434775083499E-001  5.809469814028100E-001  5.952963718434600E-001 
 6.100001922279900E-001  6.250671969760200E-001  6.405063567413301E-001  6.563268637528400E-001 
 6.725381372875400E-001  6.891498292785400E-001  7.061718300617200E-001  7.236142742642400E-001 
 7.414875468385700E-001  7.598022892454800E-001  7.785694057898500E-001  7.978000701128600E-001 
 8.175057318446400E-001  8.376981234212100E-001  8.583892670697100E-001  8.795914819663300E-001 
 9.013173915709000E-001  9.235799311427000E-001  9.463923554419300E-001  9.697682466213400E-001 
 9.937215223128900E-001  1.018266443914000E+000  1.043417625078700E+000  1.069190040418100E+000 
 1.095599034416500E+000  1.122660330566600E+000  1.150390040731500E+000  1.178804674737600E+000 
 1.207921150203600E+000  1.237756802613700E+000  1.268329395638200E+000  1.299657131710500E+000 
 1.331758662863700E+000  1.364653101836500E+000  1.398360033451800E+000  1.432899526278100E+000 
 1.468292144577200E+000  1.504558960548200E+000  1.541721566873800E+000  1.579802089575500E+000 
 1.618823201188100E+000  1.658808134257400E+000  1.699780695173600E+000  1.741765278344300E+000 
 1.784786880719400E+000  1.828871116673200E+000  1.874044233255000E+000  1.920333125816400E+000 
 1.967765354024100E+000  2.016369158268500E+000  2.066173476477700E+000  2.117207961346700E+000 
 2.169502997992000E+000  2.223089722042400E+000  2.278000038176900E+000  2.334266639119800E+000 
 2.391923025106100E+000  2.451003523826200E+000  2.511543310864700E+000  2.573578430643100E+000 
 2.637145817879900E+000  2.702283319581600E+000  2.769029717575200E+000  2.837424751599400E+000 
 2.907509142963900E+000  2.979324618795100E+000  3.052913936879300E+000  3.128320911120200E+000 
 3.205590437624900E+000  3.284768521434200E+000  3.365902303913700E+000  3.449040090820300E+000 
 3.534231381063600E+000  3.621526896175900E+000  3.710978610511400E+000  3.802639782191000E+000 
 3.896564984811100E+000  3.992810139936000E+000  4.091432550392400E+000  4.192490934387100E+000 
 4.296045460466500E+000  4.402157783340000E+000  4.510891080588500E+000  4.622310090279000E+000 
 4.736481149508900E+000  4.853472233901800E+000  4.973352998079100E+000  5.096194817131700E+000 
 5.222070829114800E+000  5.351055978594000E+000  5.483227061265300E+000  5.618662769678500E+000 
 5.757443740089600E+000  5.899652600469800E+000  6.045374019701400E+000  6.194694757988000E+000 
 6.347703718510300E+000  6.504492000357500E+000  6.665152952766300E+000  6.829782230699700E+000 
 6.998477851798000E+000  7.171340254737400E+000  7.348472359029400E+000  7.529979626297400E+000 
 7.715970123066900E+000  7.906554585106700E+000  8.101846483358800E+000  8.301962091497799E+000 
 8.507020555157800E+000  8.717143962870200E+000  8.932457418753099E+000  9.153089116996300E+000 
 9.379170418186099E+000  9.610835927515300E+000  9.848223574924900E+000  1.009147469722600E+001 
 1.034073412224700E+001  1.059615025506700E+001  1.085787516636700E+001  1.112606468297600E+001 
 1.140087848064500E+001  1.168248017911700E+001  1.197103743954200E+001  1.226672206429800E+001 
 1.256971009928600E+001  1.288018193873900E+001  1.319832243262600E+001  1.352432099671100E+001 
 1.385837172533000E+001  1.420067350694600E+001  1.455143014256700E+001  1.491085046708900E+001 
 1.527914847362600E+001  1.565654344092500E+001  1.604326006391500E+001  1.643952858749400E+001 
 1.684558494360500E+001  1.726167089171200E+001  1.768803416273800E+001  1.812492860655700E+001 
 1.857261434313900E+001  1.903135791741500E+001  1.950143245797500E+001  1.998311783968700E+001 
 2.047670085032700E+001  2.098247536133000E+001  2.150074250275500E+001  2.203181084257300E+001 
 2.257599657038500E+001  2.313362368567300E+001  2.370502419070900E+001  2.429053828822000E+001 
 2.489051458393900E+001  2.550531029416200E+001  2.613529145842800E+001  2.678083315745100E+001 
 2.744231973644000E+001  2.812014503393000E+001  2.881471261626800E+001  2.952643601789000E+001 
 3.025573898753200E+001  3.100305574052400E+001  3.176883121731500E+001  3.255352134838200E+001 
 3.335759332568800E+001  3.418152588083200E+001  3.502580957008900E+001  3.589094706647000E+001 
 3.677745345901200E+001  3.768585655944900E+001  3.861669721646800E+001  3.957052963771400E+001 
 4.054792171976600E+001  4.154945538624400E+001  4.257572693428400E+001  4.362734738956100E+001 
 4.470494287008300E+001  4.580915495897400E+001  4.694064108646100E+001  4.810007492129700E+001 
 4.928814677185300E+001  5.050556399711700E+001  5.175305142784600E+001  5.303135179811400E+001 
 5.434122618752700E+001  5.568345447435900E+001  5.705883579987600E+001  5.846818904413300E+001 
 5.991235331352300E+001  6.139218844036700E+001  6.290857549484400E+001  6.446241730956700E+001 
 6.605463901711300E+001  6.768618860083600E+001  6.935803745927601E+001  7.107118098452000E+001 
 7.282663915483801E+001  7.462545714196200E+001  7.646870593336899E+001
    </PP_R>
    <PP_RAB type="real" size="563" columns="4">
 2.067787018943645E-006  2.118861358311551E-006  2.171197233861849E-006  2.224825805538251E-006 
 2.279779002935031E-006  2.336089544307534E-006  2.393790956051925E-006  2.452917592666294E-006 
 2.513504657205356E-006  2.575588222238141E-006  2.639205251327411E-006  2.704393621035289E-006 
 2.771192143474849E-006  2.839640589418762E-006  2.909779711977434E-006  2.981651270863231E-006 
 3.055298057253475E-006  3.130763919267585E-006  3.208093788073490E-006  3.287333704638941E-006 
 3.368530847143552E-006  3.451733559067959E-006  3.536991377977143E-006  3.624355065013062E-006 
 3.713876635118790E-006  3.805609388006365E-006  3.899607939890063E-006  3.995928256005347E-006 
 4.094627683928619E-006  4.195764987721694E-006  4.299400382918547E-006  4.405595572376558E-006 
 4.514413783014205E-006  4.625919803454715E-006  4.740180022600095E-006  4.857262469158212E-006 
 4.977236852146363E-006  5.100174602394507E-006  5.226148915073537E-006  5.355234793275915E-006 
 5.487509092669902E-006  5.623050567258872E-006  5.761939916270078E-006  5.904259832201935E-006 
 6.050095050057378E-006  6.199532397793806E-006  6.352660848019359E-006  6.509571570965321E-006 
 6.670357988768304E-006  6.835115831090762E-006  7.003943192118645E-006  7.176940588963984E-006 
 7.354211021511476E-006  7.535860033742721E-006  7.721995776576167E-006  7.912729072257696E-006 
 8.108173480342295E-006  8.308445365306882E-006  8.513663965829882E-006  8.723951465785865E-006 
 8.939433066990882E-006  9.160237063745586E-006  9.386494919220049E-006  9.618341343724697E-006 
 9.855914374914695E-006  1.009935545997510E-005  1.034880953983659E-005  1.060442513547054E-005 
 1.086635443631666E-005  1.113475339089367E-005  1.140978179964867E-005  1.169160341010015E-005 
 1.198038601432963E-005  1.227630154888339E-005  1.257952619714094E-005  1.289024049421038E-005 
 1.320862943441724E-005  1.353488258144728E-005  1.386919418120912E-005  1.421176327748505E-005 
 1.456279383043892E-005  1.492249483805062E-005  1.529108046055045E-005  1.566877014792606E-005 
 1.605578877057994E-005  1.645236675321335E-005  1.685874021201754E-005  1.727515109525449E-005 
 1.770184732730721E-005  1.813908295629181E-005  1.858711830531204E-005  1.904622012745332E-005 
 1.951666176460133E-005  1.999872331018705E-005  2.049269177594878E-005  2.099886126281476E-005 
 2.151753313600609E-005  2.204901620446563E-005  2.259362690471582E-005  2.315168948926239E-005 
 2.372353621964700E-005  2.430950756427226E-005  2.490995240110888E-005  2.552522822541783E-005 
 2.615570136258510E-005  2.680174718624016E-005  2.746375034174011E-005  2.814210497518215E-005 
 2.883721496806947E-005  2.954949417777947E-005  3.027936668397091E-005  3.102726704106658E-005 
 3.179364053697998E-005  3.257894345824446E-005  3.338364336166209E-005  3.420821935269408E-005 
 3.505316237070776E-005  3.591897548126273E-005  3.680617417565126E-005  3.771528667778784E-005 
 3.864685425873103E-005  3.960143155892059E-005  4.057958691842505E-005  4.158190271531204E-005 
 4.260897571238039E-005  4.366141741247624E-005  4.473985442256370E-005  4.584492882680155E-005 
 4.697729856882363E-005  4.813763784347168E-005  4.932663749820519E-005  5.054500544441274E-005 
 5.179346707888832E-005  5.307276571573865E-005  5.438366302891651E-005  5.572693950573177E-005 
 5.710339491152281E-005  5.851384876583737E-005  5.995914083035221E-005  6.144013160886342E-005 
 6.295770285960103E-005  6.451275812023413E-005  6.610622324580290E-005  6.773904695997555E-005 
 6.941220141988613E-005  7.112668279495847E-005  7.288351185999170E-005  7.468373460293469E-005 
 7.652842284762720E-005  7.841867489196433E-005  8.035561616179394E-005  8.234039988099122E-005 
 8.437420775805204E-005  8.645825068967580E-005  8.859376948171139E-005  9.078203558790765E-005 
 9.302435186692963E-005  9.532205335804322E-005  9.767650807598779E-005  1.000891178254639E-004 
 1.025613190357534E-004  1.050945836159357E-004  1.076904198312507E-004  1.103503732010810E-004 
 1.130760274191492E-004  1.158690052964010E-004  1.187309697272228E-004  1.216636246794850E-004 
 1.246687162090689E-004  1.277480334994322E-004  1.309034099268681E-004  1.341367241520617E-004 
 1.374499012386171E-004  1.408449137992103E-004  1.443237831700514E-004  1.478885806143523E-004 
 1.515414285555266E-004  1.552845018408474E-004  1.591200290363177E-004  1.630502937535143E-004 
 1.670776360092247E-004  1.712044536186522E-004  1.754332036230354E-004  1.797664037525241E-004 
 1.842066339252112E-004  1.887565377831634E-004  1.934188242664074E-004  1.981962692257887E-004 
 2.030917170756639E-004  2.081080824874337E-004  2.132483521248722E-004  2.185155864223568E-004 
 2.239129214069905E-004  2.294435705657426E-004  2.351108267587166E-004  2.409180641796570E-004 
 2.468687403648868E-004  2.529663982519022E-004  2.592146682887349E-004  2.656172705954673E-004 
 2.721780171791791E-004  2.789008142035024E-004  2.857896643143212E-004  2.928486690228843E-004 
 3.000820311477458E-004  3.074940573170954E-004  3.150891605328205E-004  3.228718627979840E-004 
 3.308467978091073E-004  3.390187137149926E-004  3.473924759437423E-004  3.559730700995631E-004 
 3.647656049310112E-004  3.737753153728049E-004  3.830075656625195E-004  3.924678525343861E-004 
 4.021618084919753E-004  4.120952051617421E-004  4.222739567292371E-004  4.327041234604503E-004 
 4.433919153099186E-004  4.543436956180667E-004  4.655659848998248E-004  4.770654647268710E-004 
 4.888489817056183E-004  5.009235515537515E-004  5.132963632771229E-004  5.259747834500773E-004 
 5.389663606012831E-004  5.522788297081429E-004  5.659201168019302E-004  5.798983436869227E-004 
 5.942218327759966E-004  6.088991120455602E-004  6.239389201130968E-004  6.393502114398803E-004 
 6.551421616624470E-004  6.713241730555116E-004  6.879058801299836E-004  7.048971553691862E-004 
 7.223081151068129E-004  7.401491255499666E-004  7.584308089510379E-004  7.771640499321313E-004 
 7.963600019654550E-004  8.160300940139952E-004  8.361860373361556E-004  8.568398324583421E-004 
 8.780037763200806E-004  8.996904695951772E-004  9.219128241941718E-004  9.446840709517657E-004 
 9.680177675042775E-004  9.919278063616368E-004  1.016428423178776E-003  1.041534205231296E-003 
 1.067260100100484E-003  1.093621424572980E-003  1.120633873759936E-003  1.148313530441811E-003 
 1.176676874643716E-003  1.205740793447412E-003  1.235522591045552E-003  1.266039999044388E-003 
 1.297311187020795E-003  1.329354773340208E-003  1.362189836241706E-003  1.395835925196871E-003 
 1.430313072549236E-003  1.465641805441203E-003  1.501843158035594E-003  1.538938684039071E-003 
 1.576950469534840E-003  1.615901146132357E-003  1.655813904441829E-003  1.696712507881544E-003 
 1.738621306826198E-003  1.781565253104817E-003  1.825569914856508E-003  1.870661491753472E-003 
 1.916866830599759E-003  1.964213441315581E-003  2.012729513316080E-003  2.062443932294983E-003 
 2.113386297422669E-003  2.165586938969013E-003  2.219076936361541E-003  2.273888136689678E-003 
 2.330053173665917E-003  2.387605487055455E-003  2.446579342585617E-003  2.507009852347583E-003 
 2.568932995700667E-003  2.632385640694277E-003  2.697405566019660E-003  2.764031483500255E-003 
 2.832303061142754E-003  2.902260946753020E-003  2.973946792137603E-003  3.047403277903541E-003 
 3.122674138867671E-003  3.199804190097652E-003  3.278839353593237E-003  3.359826685626841E-003 
 3.442814404761927E-003  3.527851920559474E-003  3.614989862997407E-003  3.704280112613488E-003 
 3.795775831394838E-003  3.889531494430448E-003  3.985602922342775E-003  4.084047314524782E-003 
 4.184923283193393E-003  4.288290888288412E-003  4.394211673229086E-003  4.502748701557860E-003 
 4.613966594486194E-003  4.727931569370003E-003  4.844711479133539E-003  4.964375852668034E-003 
 5.086995936229041E-003  5.212644735853923E-003  5.341397060829525E-003  5.473329568231969E-003 
 5.608520808567375E-003  5.747051272538877E-003  5.889003438970692E-003  6.034461823913125E-003 
 6.183513030963933E-003  6.336245802828688E-003  6.492751074158502E-003  6.653122025690192E-003 
 6.817454139724798E-003  6.985845256975897E-003  7.158395634823366E-003  7.335208007003303E-003 
 7.516387644776353E-003  7.702042419602480E-003  7.892282867366582E-003  8.087222254190611E-003 
 8.286976643868998E-003  8.491664966972545E-003  8.701409091656662E-003  8.916333896220761E-003 
 9.136567343457410E-003  9.362240556840724E-003  9.593487898594788E-003  9.830447049689895E-003 
 1.007325909181740E-002  1.032206859138532E-002  1.057702368559239E-002  1.083827617062657E-002 
 1.110598159204097E-002  1.138029933736441E-002  1.166139273099741E-002  1.194942913145307E-002 
 1.224458003099990E-002  1.254702115776553E-002  1.285693258036250E-002  1.317449881509741E-002 
 1.349990893583025E-002  1.383335668654517E-002  1.417504059670293E-002  1.452516409944150E-002 
 1.488393565269762E-002  1.525156886331922E-002  1.562828261424326E-002  1.601430119481505E-002 
 1.640985443432710E-002  1.681517783885493E-002  1.723051273147464E-002  1.765610639594196E-002 
 1.809221222392180E-002  1.853908986585261E-002  1.899700538553933E-002  1.946623141856217E-002 
 1.994704733460047E-002  2.043973940376528E-002  2.094460096703819E-002  2.146193261092398E-002 
 2.199204234641385E-002  2.253524579237024E-002  2.309186636344191E-002  2.366223546261879E-002 
 2.424669267854555E-002  2.484558598770517E-002  2.545927196160208E-002  2.608811597905258E-002 
 2.673249244373696E-002  2.739278500709757E-002  2.806938679677056E-002  2.876270065065157E-002 
 2.947313935672221E-002  3.020112589883498E-002  3.094709370853478E-002  3.171148692313647E-002 
 3.249476065013674E-002  3.329738123819675E-002  3.411982655477871E-002  3.496258627068273E-002 
 3.582616215156934E-002  3.671106835671172E-002  3.761783174512395E-002  3.854699218922650E-002 
 3.949910289630247E-002  4.047473073784001E-002  4.147445658706569E-002  4.249887566476407E-002 
 4.354859789368364E-002  4.462424826165837E-002  4.572646719372066E-002  4.685591093340559E-002 
 4.801325193346156E-002  4.919917925621818E-002  5.041439898384598E-002  5.165963463874700E-002 
 5.293562761432495E-002  5.424313761639871E-002  5.558294311552504E-002  5.695584181047682E-002 
 5.836265110319660E-002  5.980420858544504E-002  6.128137253750536E-002  6.279502243918278E-002 
 6.434605949342853E-002  6.593540716291782E-002  6.756401171984029E-002  6.923284280932261E-002 
 7.094289402671275E-002  7.269518350917237E-002  7.449075454184796E-002  7.633067617903115E-002 
 7.821604388065398E-002  8.014798016450528E-002  8.212763527457040E-002  8.415618786585061E-002 
 8.623484570613807E-002  8.836484639508038E-002  9.054745810103779E-002  9.278398031613265E-002 
 9.507574462994069E-002  9.742411552230183E-002  9.983049117570222E-002  1.022963043077423E-001 
 1.048230230241444E-001  1.074121516928402E-001  1.100652318396535E-001  1.127838430660920E-001 
 1.155696039898247E-001  1.184241732083741E-001  1.213492502866191E-001  1.243465767686997E-001 
 1.274179372148853E-001  1.305651602640946E-001  1.337901197226184E-001  1.370947356797658E-001 
 1.404809756510570E-001  1.439508557496378E-001  1.475064418866537E-001  1.511498510012535E-001 
 1.548832523209844E-001  1.587088686533126E-001  1.626289777090486E-001  1.666459134584639E-001 
 1.707620675208884E-001  1.749798905886541E-001  1.793018938861935E-001  1.837306506651818E-001 
 1.882687977366107E-001  1.929190370407061E-001  1.976841372556107E-001  2.025669354458252E-001 
 2.075703387513372E-001  2.126973261184953E-001  2.179509500736223E-001  2.233343385404407E-001 
 2.288506967023894E-001  2.345033089109385E-001  2.402955406410380E-001  2.462308404948828E-001 
 2.523127422550946E-001  2.585448669888076E-001  2.649309252034274E-001  2.714747190559456E-001 
 2.781801446166151E-001  2.850511941886471E-001  2.920919586851264E-001  2.993066300646323E-001 
 3.066995038272248E-001  3.142749815717727E-001  3.220375736165991E-001  3.299919016849081E-001 
 3.381427016565312E-001  3.464948263874560E-001  3.550532485992123E-001  3.638230638396274E-001 
 3.728094935164638E-001  3.820178880063311E-001  3.914537298400668E-001  4.011226369671238E-001 
 4.110303661002093E-001  4.211828161428834E-001  4.315860317016300E-001  4.422462066846449E-001 
 4.531696879897567E-001  4.643629792831151E-001  4.758327448714043E-001  4.875858136697285E-001 
 4.996291832673642E-001  5.119700240940662E-001  5.246156836891932E-001  5.375736910763153E-001 
 5.508517612459111E-001  5.644577997486726E-001  5.783999074024618E-001  5.926863851153145E-001 
 6.073257388276621E-001  6.223266845766980E-001  6.376981536857473E-001  6.534492980817811E-001 
 6.695894957444002E-001  6.861283562892853E-001  7.030757266896288E-001  7.204416971388670E-001 
 7.382366070581998E-001  7.564710512525364E-001  7.751558862184755E-001  7.943022366080552E-001 
 8.139215018522977E-001  8.340253629480374E-001  8.546257894128650E-001  8.757350464113578E-001 
 8.973657020577231E-001  9.195306348985343E-001  9.422430415805428E-001  9.655164447075639E-001 
 9.893647008918520E-001  1.013802009003875E+000  1.038842918626266E+000  1.064502338716339E+000 
 1.090795546482629E+000  1.117738196480748E+000  1.145346329933831E+000  1.173636384283207E+000 
 1.202625202975001E+000  1.232330045488465E+000  1.262768597612035E+000  1.293958981973057E+000 
 1.325919768827782E+000  1.358669987117830E+000  1.392229135799649E+000  1.426617195453901E+000 
 1.461854640181611E+000  1.497962449794096E+000  1.534962122304009E+000  1.572875686724926E+000 
 1.611725716187024E+000  1.651535341376852E+000  1.692328264308844E+000  1.734128772437269E+000 
 1.776961753116479E+000  1.820852708418444E+000  1.865827770316392E+000
    </PP_RAB>
  </PP_MESH>
  <PP_LOCAL type="real" size="563" columns="4">
-1.743081177638540E+001 -1.743081185737200E+001 -1.743081193638760E+001 -1.743081201347820E+001 
-1.743081208868960E+001 -1.743081216206600E+001 -1.743081223365040E+001 -1.743081230348480E+001 
-1.743081237161020E+001 -1.743081243806680E+001 -1.743081250289300E+001 -1.743081256612700E+001 