<UPF version="2.0.1">
  <PP_INFO>
    Generated using FHI98PP, converted with fhi2upf.x v.5.0.2
    Author: unknown
    Generation date: unknown
    Pseudopotential type: SL
    Element:  W
    Functional: PBE

    Suggested minimum cutoff for wavefunctions:   0. Ry
    Suggested minimum cutoff for charge density:   0. Ry
    The Pseudo was generated with a Scalar-Relativistic Calculation
    L component and cutoff radius for Local Potential:  3   0.0000

    Valence configuration: 
    nl pn  l   occ       Rcut    Rcut US       E pseu
    6s  6  0  2.00      0.000      0.000     0.000000
    6p  6  1  0.00      0.000      0.000     0.000000
    5d  5  2  3.80      0.000      0.000     0.000000
    5f  5  3  0.00      0.000      0.000     0.000000

    Generation configuration: not available.
    Comment:
    molybdenum, fhi98PP : Trouiller-Martins-type, GGA Perdew/Burke/Ernzerhof (1996),
  </PP_INFO>
  <!--                               -->
  <!-- END OF HUMAN READABLE SECTION -->
  <!--                               -->
  <PP_HEADER generated="Generated using FHI98PP, converted with fhi2upf.x v.5.0.2"
             author="unknown"
             date="unknown"
             comment="molybdenum, fhi98PP : Trouiller-Martins-type, GGA Perdew/Burke/Ernzerhof (1996),"
             element=" W"
             pseudo_type="SL"
             relativistic="scalar"
             is_ultrasoft="F"
             is_paw="F"
             is_coulomb="F"
             has_so="F"
             has_wfc="F"
             has_gipaw="F"
             paw_as_gipaw="F"
             core_correction="F"
             functional="PBE"
             z_valence="5.800000000000000E+000"
             total_psenergy="0.000000000000000E+000"
             wfc_cutoff="0.000000000000000E+000"
             rho_cutoff="0.000000000000000E+000"
             l_max="2"
             l_max_rho="0"
             l_local="3"
             mesh_size="563"
             number_of_wfc="4"
             number_of_proj="3"/>
  <PP_MESH dx="2.439988682353512E-002" mesh="563" xmin="-5.075173815233825E+000" rmax="7.641689786701799E+001"
zmesh="7.380000000000000E+001">
    <PP_R type="real" size="563" columns="4">
 8.468834688346900E-005  8.678014905149100E-005  8.892361873306199E-005  9.112003211576900E-005 
 9.337069690902800E-005  9.567695312268100E-005  9.804017386481200E-005  1.004617661592700E-004 
 1.029431717834100E-004  1.054858681264600E-004  1.080913690691800E-004  1.107612258851900E-004 
 1.134970281645500E-004  1.163004047602200E-004  1.191730247577900E-004  1.221165984693100E-004 
 1.251328784515000E-004  1.282236605492600E-004  1.313907849648200E-004  1.346361373534500E-004 
 1.379616499460800E-004  1.413693026997500E-004  1.448611244764400E-004  1.484391942510000E-004 
 1.521056423490000E-004  1.558626517150200E-004  1.597124592123900E-004  1.636573569549300E-004 
 1.676996936717200E-004  1.718418761054100E-004  1.760863704452100E-004  1.804357037952100E-004 
 1.848924656789500E-004  1.894593095812200E-004  1.941389545278800E-004  1.989341867047200E-004 
 2.038478611163200E-004  2.088829032859000E-004  2.140423109970600E-004  2.193291560786900E-004 
 2.247465862338300E-004  2.302978269138100E-004  2.359861832385800E-004  2.418150419645700E-004 
 2.477878735010900E-004  2.539082339765700E-004  2.601797673557900E-004  2.666062076094800E-004 
 2.731913809374300E-004  2.799392080465900E-004  2.868537064853400E-004  2.939389930355300E-004 
 3.011992861635000E-004  3.086389085317400E-004  3.162622895724800E-004  3.240739681249200E-004 
 3.320785951376000E-004  3.402809364375000E-004  3.486858755675100E-004  3.572984166940300E-004 
 3.661236875863700E-004  3.751669426697500E-004  3.844335661536900E-004  3.939290752376900E-004 
 4.036591233960600E-004  4.136295037439400E-004  4.238461524864200E-004  4.343151524528300E-004 
 4.450427367184200E-004  4.560352923153600E-004  4.672993640355500E-004  4.788416583272300E-004 
 4.906690472879100E-004  5.027885727559300E-004  5.152074505030000E-004  5.279330745304200E-004 
 5.409730214713200E-004  5.543350551016600E-004  5.680271309626700E-004  5.820574010974500E-004 
 5.964342189045600E-004  6.111661441115000E-004  6.262619478710600E-004  6.417306179834700E-004 
 6.575813642476600E-004  6.738236239445800E-004  6.904670674560100E-004  7.075216040221799E-004 
 7.249973876415200E-004  7.429048231162700E-004  7.612545722472400E-004  7.800575601817500E-004 
 7.993249819182400E-004  8.190683089716200E-004  8.392992962032200E-004  8.600299888194300E-004 
 8.812727295432700E-004  9.030401659629900E-004  9.253452580622800E-004  9.482012859364200E-004 
 9.716218576990500E-004  9.956209175842100E-004  1.020212754248500E-003  1.045412009278500E-003 
 1.071233685907700E-003  1.097693157949600E-003  1.124806178950900E-003  1.152588891571000E-003 
 1.181057837192800E-003  1.210229965771500E-003  1.240122645926000E-003  1.270753675280400E-003 
 1.302141291059800E-003  1.334304180949000E-003  1.367261494218500E-003  1.401032853125700E-003 
 1.435638364597900E-003  1.471098632203400E-003  1.507434768418900E-003  1.544668407198800E-003 
 1.582821716856600E-003  1.621917413263000E-003  1.661978773370600E-003  1.703029649072800E-003 
 1.745094481404900E-003  1.788198315095600E-003  1.832366813478500E-003  1.877626273771400E-003 
 1.924003642733600E-003  1.971526532709100E-003  2.020223238067000E-003  2.070122752047200E-003 
 2.121254784022800E-003  2.173649777188200E-003  2.227338926684700E-003  2.282354198173800E-003 
 2.338728346868700E-003  2.396494937036400E-003  2.455688361981200E-003  2.516343864522100E-003 
 2.578497557975800E-003  2.642186447657800E-003  2.707448452915000E-003  2.774322429702000E-003 
 2.842848193715600E-003  2.913066544100400E-003  2.985019287739700E-003  3.058749264146800E-003 
 3.134300370971200E-003  3.211717590134200E-003  3.291047014610600E-003  3.372335875871400E-003 
 3.455632572005500E-003  3.540986696534000E-003  3.628449067938400E-003  3.718071759916500E-003 
 3.809908132386400E-003  3.904012863256300E-003  4.000441980978800E-003  4.099252897908900E-003 
 4.200504444487300E-003  4.304256904266100E-003  4.410572049801500E-003  4.519513179431600E-003 
 4.631145154963600E-003  4.745534440291200E-003  4.862749140966400E-003  4.982859044748200E-003 
 5.105935663153500E-003  5.232052274033400E-003  5.361283965202000E-003  5.493707679142500E-003 
 5.629402258817300E-003  5.768448494610100E-003  5.910929172427000E-003  6.056929122985900E-003 
 6.206535272323700E-003  6.359836693550100E-003  6.516924659880800E-003  6.677892698979800E-003 
 6.842836648644600E-003  7.011854713866100E-003  7.185047525298600E-003  7.362518199173500E-003 
 7.544372398693100E-003  7.730718396940800E-003  7.921667141345300E-003  8.117332319736501E-003 
 8.317830428034001E-003  8.523280839606399E-003  8.733805876344701E-003  8.949530881490400E-003 
 9.170584294263200E-003  9.397097726331500E-003  9.629206040171900E-003  9.867047429364100E-003 
 1.011076350086900E-002  1.036049935934100E-002  1.061640369351700E-002  1.087862886474600E-002 
 1.114733099770600E-002  1.142267007334900E-002  1.170481002416100E-002  1.199391883175800E-002 
 1.229016862690200E-002  1.259373579198600E-002  1.290480106604900E-002  1.322354965238000E-002 
 1.355017132879400E-002  1.388486056061500E-002  1.422781661646200E-002  1.457924368688900E-002 
 1.493935100595500E-002  1.530835297580200E-002  1.568646929430400E-002  1.607392508587400E-002 
 1.647095103549500E-002  1.687778352607100E-002  1.729466477916500E-002  1.772184299921100E-002 
 1.815957252129100E-002  1.860811396256700E-002  1.906773437744200E-002  1.953870741656500E-002 
 2.002131348975400E-002  2.051583993295100E-002  2.102258117929500E-002  2.154183893442400E-002 
 2.207392235610400E-002  2.261914823830000E-002  2.317784119978600E-002  2.375033387742100E-002 
 2.433696712419300E-002  2.493809021216100E-002  2.555406104040100E-002  2.618524634809900E-002 
 2.683202193289700E-002  2.749477287463900E-002  2.817389376464300E-002  2.886978894063000E-002 
 2.958287272746300E-002  3.031356968383200E-002  3.106231485502200E-002  3.182955403194100E-002 
 3.261574401653000E-002  3.342135289373800E-002  3.424686031021400E-002  3.509275775987600E-002 
 3.595954887654500E-002  3.684774973379600E-002  3.775788915222000E-002  3.869050901428000E-002 
 3.964616458693300E-002  4.062542485223000E-002  4.162887284608000E-002  4.265710600537800E-002 
 4.371073652371100E-002  4.479039171584700E-002  4.589671439122800E-002  4.703036323669200E-002 
 4.819201320863800E-002  4.938235593489100E-002  5.060210012648300E-002  5.185197199960700E-002 
 5.313271570799800E-002  5.444509378598500E-002  5.578988760249900E-002  5.716789782628100E-002 
 5.857994490259000E-002  6.002686954168400E-002  6.150953321936300E-002  6.302881868988200E-002 
 6.458563051152200E-002  6.618089558515600E-002  6.781556370611000E-002  6.949060812965099E-002 
 7.120702615045300E-002  7.296583969636899E-002  7.476809593686901E-002  7.661486790651000E-002 
 7.850725514380100E-002  8.044638434585299E-002  8.243341003919499E-002  8.446951526716399E-002 
 8.655591229426200E-002  8.869384332793100E-002  9.088458125813099E-002  9.312943041520599E-002 
 9.542972734646200E-002  9.778684161192000E-002  1.002021765997300E-001  1.026771703617500E-001 
 1.052132964696800E-001  1.078120648924800E-001  1.104750228953300E-001  1.132037559608400E-001 
 1.159998887330800E-001  1.188650859847800E-001  1.218010536086100E-001  1.248095396327400E-001 
 1.278923352616700E-001  1.310512759426300E-001  1.342882424584100E-001  1.376051620471400E-001 
 1.410040095497000E-001  1.444868085855800E-001  1.480556327576400E-001  1.517126068867600E-001 
 1.554599082768600E-001  1.592997680113000E-001  1.632344722811800E-001  1.672663637465200E-001 
 1.713978429310600E-001  1.756313696514600E-001  1.799694644818500E-001  1.844147102545500E-001 
 1.889697535978400E-001  1.936373065117000E-001  1.984201479825400E-001  2.033211256377100E-001 
 2.083431574409600E-001  2.134892334297600E-001  2.187624174954700E-001  2.241658492076100E-001 
 2.297027456830400E-001  2.353764035014100E-001  2.411902006678900E-001  2.471475986243900E-001 
 2.532521443104100E-001  2.595074722748800E-001  2.659173068400700E-001  2.724854643190200E-001 
 2.792158552877000E-001  2.861124869133000E-001  2.931794653400600E-001  3.004209981339600E-001 
 3.078413967878700E-001  3.154450792885300E-001  3.232365727469600E-001  3.312205160938100E-001 
 3.394016628413200E-001  3.477848839135100E-001  3.563751705461700E-001  3.651776372586600E-001 
 3.741975248989500E-001  3.834402037639500E-001  3.929111767969200E-001  4.026160828638100E-001 
 4.125607001105400E-001  4.227509494032700E-001  4.331928978535300E-001  4.438927624305200E-001 
 4.548569136625500E-001  4.660918794300100E-001  4.776043488519400E-001  4.894011762685800E-001 
 5.014893853224101E-001  5.138761731398800E-001  5.265689146164300E-001  5.395751668074600E-001 
 5.529026734276000E-001  5.665593694612600E-001  5.805533858869600E-001  5.948930545183601E-001 
 6.095869129649700E-001  6.246437097152000E-001  6.400724093451700E-001  6.558821978559900E-001 
 6.720824881430399E-001  6.886829256001700E-001  7.056933938624900E-001  7.231240206909000E-001 
 7.409851840019600E-001  7.592875180468101E-001  7.780419197425700E-001  7.972595551602100E-001 
 8.169518661726600E-001  8.371305772671300E-001  8.578077025256300E-001  8.789955527780100E-001 
 9.007067429316300E-001  9.229541994820400E-001  9.457511682092400E-001  9.691112220640100E-001 
 9.930482692489900E-001  1.017576561499400E+000  1.042710702568500E+000  1.068465656921900E+000 
 1.094856758647900E+000  1.121899720586500E+000  1.149610643685000E+000  1.178006026584000E+000 
 1.207102775440600E+000  1.236918213994000E+000  1.267470093879700E+000  1.298776605198500E+000 
 1.330856387346900E+000  1.363728540114400E+000  1.397412635055200E+000  1.431928727141000E+000 
 1.467297366701400E+000  1.503539611659000E+000  1.540677040066900E+000  1.578731762956600E+000 
 1.617726437501600E+000  1.657684280507900E+000  1.698629082236400E+000  1.740585220567700E+000 
 1.783577675515700E+000  1.827632044100900E+000  1.872774555590200E+000  1.919032087113300E+000 
 1.966432179665000E+000  2.015003054502700E+000  2.064773629949000E+000  2.115773538608700E+000 
 2.168033145012300E+000  2.221583563694100E+000  2.276456677717400E+000  2.332685157657000E+000 
 2.390302481051100E+000  2.449342952333100E+000  2.509841723255700E+000  2.571834813820100E+000 
 2.635359133721500E+000  2.700452504324400E+000  2.767153681181200E+000  2.835502377106400E+000 
 2.905539285820900E+000  2.977306106180700E+000  3.050845567003400E+000  3.126201452508400E+000 
 3.203418628385300E+000  3.282543068506400E+000  3.363621882298500E+000  3.446703342791300E+000 
 3.531836915358300E+000  3.619073287167600E+000  3.708464397360600E+000  3.800063467975500E+000 
 3.893925035634400E+000  3.990104984014600E+000  4.088660577119800E+000  4.189650493374600E+000 
 4.293134860561000E+000  4.399175291616800E+000  4.507834921319800E+000  4.619178443876400E+000 
 4.733272151440100E+000  4.850183973580700E+000  4.969983517728100E+000  5.092742110616000E+000 
 5.218532840748200E+000  5.347430601914700E+000  5.479512137782000E+000  5.614856087585200E+000 
 5.753543032948600E+000  5.895655545862400E+000  6.041278237845200E+000  6.190497810320000E+000 
 6.343403106234900E+000  6.500085162958900E+000  6.660637266484000E+000  6.825155006966100E+000 
 6.993736335638200E+000  7.166481623128500E+000  7.343493719219700E+000  7.524878014084500E+000 
 7.710742501032400E+000  7.901197840807800E+000  8.096357427475800E+000  8.296337455934500E+000 
 8.501256991096000E+000  8.711238038776100E+000  8.926405618333900E+000  9.146887837106700E+000 
 9.372815966683300E+000  9.604324521060301E+000  9.841551336730500E+000  1.008463765474800E+001 
 1.033372820482000E+001  1.058897129147900E+001  1.085051888237900E+001  1.111852669877300E+001 
 1.139315430823300E+001  1.167456521964600E+001  1.196292698057200E+001  1.225841127699200E+001 
 1.256119403553400E+001  1.287145552821100E+001  1.318938047975800E+001  1.351515817760800E+001 
 1.384898258459500E+001  1.419105245443400E+001  1.454157145005900E+001  1.490074826487500E+001 
 1.526879674701800E+001  1.564593602666900E+001  1.603239064652800E+001  1.642839069549700E+001 
 1.683417194567600E+001  1.724997599273400E+001  1.767605039975500E+001  1.811264884462900E+001 
 1.856003127109100E+001  1.901846404348700E+001  1.948822010536100E+001  1.996957914196300E+001 
 2.046282774677000E+001  2.096825959211500E+001  2.148617560404000E+001  2.201688414146000E+001 
 2.256070117975400E+001  2.311795049889400E+001  2.368896387621700E+001  2.427408128395900E+001 
 2.487365109167300E+001  2.548803027363800E+001  2.611758462139600E+001  2.676268896154500E+001 
 2.742372737889500E+001  2.810109344515400E+001  2.879519045324900E+001  2.950643165744400E+001 
 3.023524051938300E+001  3.098205096021200E+001  3.174730761892900E+001  3.253146611711700E+001 
 3.333499333020900E+001  3.415836766546600E+001  3.500207934680300E+001  3.586663070666900E+001 
 3.675253648512300E+001  3.766032413630600E+001  3.859053414247300E+001  3.954372033579200E+001 
 4.052045022808600E+001  4.152130534871900E+001  4.254688159083300E+001  4.359778956612600E+001 
 4.467465496841000E+001  4.577811894612900E+001  4.690883848409900E+001  4.806748679465600E+001 
 4.925475371848400E+001  5.047134613533100E+001  5.171798838487300E+001  5.299542269798000E+001 
 5.430440963862000E+001  5.564572855669400E+001  5.702017805204400E+001  5.842857644993000E+001 
 5.987176228824300E+001  6.135059481676200E+001  6.286595450873600E+001  6.441874358510201E+001 
 6.600988655165401E+001  6.764033074948000E+001  6.931104691899201E+001  7.102302977789100E+001 
 7.277729861340499E+001  7.457489788915601E+001  7.641689786701799E+001
    </PP_R>
    <PP_RAB type="real" size="563" columns="4">
 2.066386079228927E-006  2.117425815385889E-006  2.169726233025900E-006  2.223318470981649E-006 
 2.278234437214884E-006  2.334506827814092E-006  2.392169146461119E-006  2.451255724378639E-006 
 2.511801740770938E-006  2.573843243767975E-006  2.637417171888956E-006  2.702561376034644E-006 
 2.769314642022598E-006  2.837716713680693E-006  2.907808316508425E-006  2.979631181926246E-006 
 3.053228072119777E-006  3.128642805501329E-006  3.205920282797048E-006  3.285106513782109E-006 
 3.366248644672522E-006  3.449394986195978E-006  3.534595042355169E-006  3.621899539901145E-006 
 3.711360458536711E-006  3.803031061862560E-006  3.896965929090785E-006  3.993220987539180E-006 
 4.091853545931477E-006  4.192922328515949E-006  4.296487510030204E-006  4.402610751528031E-006 
 4.511355237090731E-006  4.622785711446871E-006  4.736968518519703E-006  4.853971640927173E-006 
 4.973864740457913E-006  5.096719199547393E-006  5.222608163776171E-006  5.351606585421506E-006 
 5.483791268081328E-006  5.619240912403044E-006  5.758036162939373E-006  5.900259656163904E-006 
 6.045996069671033E-006  6.195332172591983E-006  6.348356877254973E-006  6.505161292123220E-006 
 6.665838776038562E-006  6.830484993806848E-006  6.999197973153858E-006  7.172078163090810E-006 
 7.349228493718968E-006  7.530754437513864E-006  7.716764072120604E-006  7.907368144701976E-006 
 8.102680137875979E-006  8.302816337281548E-006  8.507895900812494E-006  8.718040929562625E-006 
 8.933376540522758E-006  9.154030941073589E-006  9.380135505318038E-006  9.611824852299487E-006 
 9.849236926151261E-006  1.009251307822713E-005  1.034179815125946E-005  1.059724056559545E-005 
 1.085899240756579E-005  1.112720952003254E-005  1.140205159517736E-005  1.168368226957829E-005 
 1.197226922163681E-005  1.226798427141145E-005  1.257100348291527E-005  1.288150726894318E-005 
 1.319968049848604E-005  1.352571260679861E-005  1.385979770818651E-005  1.420213471157877E-005 
 1.455292743895484E-005  1.491238474669696E-005  1.528072064994052E-005  1.565815444999392E-005 
 1.604491086490873E-005  1.644122016327204E-005  1.684731830130484E-005  1.726344706334722E-005 
 1.768985420581171E-005  1.812679360469537E-005  1.857452540673130E-005  1.903331618427764E-005 
 1.950343909402931E-005  1.998517403965183E-005  2.047880783843125E-005  2.098463439204027E-005 
 2.150295486152366E-005  2.203407784660333E-005  2.257831956941453E-005  2.313600406277911E-005 
 2.370746336312977E-005  2.429303770819891E-005  2.489307573959045E-005  2.550793471035985E-005 
 2.613798069770625E-005  2.678358882093910E-005  2.744514346481495E-005  2.812303850839619E-005 
 2.881767755955349E-005  2.952947419527538E-005  3.025885220789732E-005  3.100624585743306E-005 
 3.177210013011102E-005  3.255687100332533E-005  3.336102571710892E-005  3.418504305232159E-005 
 3.502941361571381E-005  3.589464013202028E-005  3.678123774328303E-005  3.768973431554098E-005 
 3.862067075313459E-005  3.957460132073804E-005  4.055209397336036E-005  4.155373069450105E-005 
 4.258010784265528E-005  4.363183650636884E-005  4.470954286807709E-005  4.581386857691813E-005 
 4.694547113076914E-005  4.810502426769865E-005  4.929321836711045E-005  5.051076086077674E-005 
 5.175837665403876E-005  5.303680855739441E-005  5.434681772876087E-005  5.568918412666098E-005 
 5.706470697458967E-005  5.847420523686309E-005  5.991851810621362E-005  6.139850550343624E-005 
 6.291504858937120E-005  6.446905028952863E-005  6.606143583168125E-005  6.769315329672378E-005 
 6.936517418315188E-005  7.107849398547634E-005  7.283413278691810E-005  7.463313586675325E-005 
 7.647657432266143E-005  7.836554570843145E-005  8.030117468743179E-005  8.228461370220934E-005 
 8.431704366065578E-005  8.639967463907311E-005  8.853374660265845E-005  9.072053014374464E-005 
 9.296132723829422E-005  9.525747202107902E-005  9.761033158000137E-005  1.000213067700255E-004 
 1.024918330472464E-004  1.050233813235125E-004  1.076174588422039E-004  1.102756100756064E-004 
 1.129994176444749E-004  1.157905032602934E-004  1.186505286908228E-004  1.215811967494844E-004 
 1.245842523091971E-004  1.276614833412345E-004  1.308147219797624E-004  1.340458456126628E-004 
 1.373567779992951E-004  1.407494904158780E-004  1.442260028291509E-004  1.477883850990298E-004 
 1.514387582109770E-004  1.551792955387883E-004  1.590122241385966E-004  1.629398260748186E-004 
 1.669644397788666E-004  1.710884614414041E-004  1.753143464390069E-004  1.796446107960510E-004 
 1.840818326827138E-004  1.886286539499764E-004  1.932877817025423E-004  1.980619899105944E-004 
 2.029541210613863E-004  2.079670878516015E-004  2.131038749215367E-004  2.183675406320983E-004 
 2.237612188857108E-004  2.292881209921878E-004  2.349515375806951E-004  2.407548405589372E-004 
 2.467014851207333E-004  2.527950118032285E-004  2.590390485947750E-004  2.654373130950448E-004 
 2.719936147285113E-004  2.787118570122972E-004  2.855960398805078E-004  2.926502620655618E-004 
 2.998787235385709E-004  3.072857280099619E-004  3.148756854918310E-004  3.226531149234692E-004 
 3.306226468620841E-004  3.387890262395724E-004  3.471571151876852E-004  3.557318959328305E-004 
 3.645184737623676E-004  3.735220800642959E-004  3.827480754418764E-004  3.922019529053077E-004 
 4.018893411420666E-004  4.118160078682579E-004  4.219878632626050E-004  4.324109634852066E-004 
 4.430915142832787E-004  4.540358746860785E-004  4.652505607908147E-004  4.767422496423523E-004 
 4.885177832085146E-004  5.005841724537668E-004  5.129486015133776E-004  5.256184319707680E-004 
 5.386012072404393E-004  5.519046570592838E-004  5.655367020886479E-004  5.795054586302445E-004 
 5.938192434584042E-004  6.084865787718374E-004  6.235161972674926E-004  6.389170473400019E-004 
 6.546982984092989E-004  6.708693463799950E-004  6.874398192355910E-004  7.044195827707179E-004 
 7.218187464651409E-004  7.396476695028461E-004  7.579169669395506E-004  7.766375160229564E-004 
 7.958204626687249E-004  8.154772280966352E-004  8.356195156306385E-004  8.562593176667082E-004 
 8.774089228130775E-004  8.990809232065688E-004  9.212882220097525E-004  9.440440410933974E-004 
 9.673619289084113E-004  9.912557685524432E-004  1.015739786035687E-003  1.040828558750763E-003 
 1.066537024151911E-003  1.092880488648472E-003  1.119874636718079E-003  1.147535540245032E-003 
 1.175879668089077E-003  1.204923895890868E-003  1.234685516119377E-003  1.265182248367523E-003 
 1.296432249902218E-003  1.328454126474789E-003  1.361266943398721E-003  1.394890236900676E-003 
 1.429344025752119E-003  1.464648823188197E-003  1.500825649120931E-003  1.537896042654236E-003 
 1.575882074907794E-003  1.614806362158001E-003  1.654692079303320E-003  1.695562973662114E-003 
 1.737443379111559E-003  1.780358230575610E-003  1.824333078870820E-003  1.869394105918937E-003 
 1.915568140335140E-003  1.962882673401421E-003  2.011365875434422E-003  2.061046612557673E-003 
 2.111954463887825E-003  2.164119739145872E-003  2.217573496702777E-003  2.272347562071316E-003 
 2.328474546854488E-003  2.385987868161803E-003  2.444921768505292E-003  2.505311336187535E-003 
 2.567192526191239E-003  2.630602181588136E-003  2.695578055473503E-003  2.762158833443585E-003 
 2.830384156629819E-003  2.900294645298403E-003  2.971931923037418E-003  3.045338641536377E-003 
 3.120558505982358E-003  3.197636301080043E-003  3.276617917716648E-003  3.357550380284426E-003 
 3.440481874677345E-003  3.525461776981935E-003  3.612540682873295E-003  3.701770437740419E-003 
 3.793204167552534E-003  3.886896310491121E-003  3.982902649360272E-003  4.081280344799347E-003 
 4.182087969315913E-003  4.285385542158085E-003  4.391234565049364E-003  4.499698058806042E-003 
 4.610840600858614E-003  4.724728363699660E-003  4.841429154283067E-003  4.961012454393889E-003 
 5.083549462017383E-003  5.209113133729415E-003  5.337778228132408E-003  5.469621350367325E-003 
 5.604720997721447E-003  5.743157606365140E-003  5.885013599242241E-003  6.030373435143600E-003 
 6.179323658991587E-003  6.331952953368751E-003  6.488352191316969E-003  6.648614490442505E-003 
 6.812835268356440E-003  6.981112299484693E-003  7.153545773282002E-003  7.330238353882080E-003 
 7.511295241222996E-003  7.696824233681195E-003  7.886935792253200E-003  8.081743106321856E-003 
 8.281362161047834E-003  8.485911806425944E-003  8.695513828044576E-003  8.910293019597266E-003 
 9.130377257181344E-003  9.355897575433626E-003  9.586988245546846E-003  9.823786855212003E-003 
 1.006643439053559E-002  1.031507531998181E-002  1.056985768038534E-002  1.083093316509105E-002 
 1.109845721426871E-002  1.137258910746102E-002  1.165349205841552E-002  1.194133331225831E-002 
 1.223628424507100E-002  1.253852046592441E-002  1.284822192143262E-002  1.316557300289211E-002 
 1.349076265606344E-002  1.382398449366816E-002  1.416543691066194E-002  1.451532320235509E-002 
 1.487385168545342E-002  1.524123582208401E-002  1.561769434688959E-002  1.600345139725762E-002 
 1.639873664677006E-002  1.680378544194520E-002  1.721883894236115E-002  1.764414426423763E-002 
 1.807995462756417E-002  1.852652950686505E-002  1.898413478568470E-002  1.945304291489108E-002 
 1.993353307488872E-002  2.042589134183860E-002  2.093041085798205E-002  2.144739200617414E-002 
 2.197714258872671E-002  2.251997801066823E-002  2.307622146753158E-002  2.364620413777966E-002 
 2.423026537998279E-002  2.482875293486738E-002  2.544202313236019E-002  2.607044110372846E-002 
 2.671438099899127E-002  2.737422620966628E-002  2.805036959704536E-002  2.874321372609191E-002 
 2.945317110512577E-002  3.018066443142280E-002  3.092612684288012E-002  3.169000217589855E-002 
 3.247274522964318E-002  3.327482203681614E-002  3.409671014112487E-002  3.493889888160910E-002 
 3.580188968398527E-002  3.668619635918155E-002  3.759234540925144E-002  3.852087634086112E-002 
 3.947234198647970E-002  4.044730883354600E-002  4.144635736173349E-002  4.247008238856979E-002 
 4.351909342356693E-002  4.459401503112811E-002  4.569548720239716E-002  4.682416573629691E-002 
 4.798072262998348E-002  4.916584647894345E-002  5.038024288697538E-002  5.162463488628270E-002 
 5.289976336797302E-002  5.420638752316187E-002  5.554528529498533E-002  5.691725384177098E-002 
 5.832311001166204E-002  5.976369082895102E-002  6.123985399242544E-002  6.275247838603797E-002 
 6.430246460217416E-002  6.589073547784735E-002  6.751823664414987E-002  6.918593708926096E-002 
 7.089482973536503E-002  7.264593202982912E-002  7.444028655096679E-002  7.627896162877607E-002 
 7.816305198100543E-002  8.009367936493586E-002  8.207199324524957E-002  8.409917147840790E-002 
 8.617642101392591E-002  8.830497861296867E-002  9.048611158470803E-002  9.272111854085258E-002 
 9.501133016880933E-002  9.735811002397966E-002  9.976285534157291E-002  1.022269978685083E-001 
 1.047520047158616E-001  1.073393792323420E-001  1.099906618993825E-001  1.127074312482972E-001 
 1.154913048001290E-001  1.183439400286929E-001  1.212670353474006E-001  1.242623311204818E-001 
 1.273316106991573E-001  1.304767014834270E-001  1.336994760100678E-001  1.370018530675161E-001 
 1.403857988382848E-001  1.438533280695898E-001  1.474065052729086E-001  1.510474459531500E-001 
 1.547783178681927E-001  1.586013423195370E-001  1.625187954748299E-001  1.665330097230569E-001 
 1.706463750632173E-001  1.748613405272797E-001  1.791804156383017E-001  1.836061719045695E-001 
 1.881412443506127E-001  1.927883330860704E-001  1.975502049132975E-001  2.024296949746571E-001 
 2.074297084405291E-001  2.125532222390109E-001  2.178032868283152E-001  2.231830280129734E-001 
 2.286956488048955E-001  2.343444313303745E-001  2.401327387842350E-001  2.460640174322119E-001 
 2.521417986627807E-001  2.583697010897501E-001  2.647514327066784E-001  2.712907930945148E-001 
 2.779916756839568E-001  2.848580700733419E-001  2.918940644041715E-001  2.991038477949514E-001 
 3.064917128354940E-001  3.140620581425139E-001  3.218193909786385E-001  3.297683299358104E-001 
 3.379136076852269E-001  3.462600737950399E-001  3.548126976177891E-001  3.635765712489373E-001 
 3.725569125588004E-001  3.817590682989944E-001  3.911885172859863E-001  4.008508736629443E-001 
 4.107518902424245E-001  4.208974619314075E-001  4.312936292411247E-001  4.419465818833818E-001 
 4.528626624558931E-001  4.640483702185549E-001  4.755103649629501E-001  4.872554709775248E-001 
 4.992906811106822E-001  5.116231609341108E-001  5.242602530091773E-001  5.372094812585092E-001 
 5.504785554455929E-001  5.640753757651009E-001  5.780080375465066E-001  5.922848360738917E-001 
 6.069142715249221E-001  6.219050540316041E-001  6.372661088661637E-001  6.530065817551707E-001 
 6.691358443245194E-001  6.856634996793423E-001  7.025993881214145E-001  7.199535930080074E-001 
 7.377364467553085E-001  7.559585369901705E-001  7.746307128538219E-001  7.937640914613223E-001 
 8.133700645203977E-001  8.334603051140721E-001  8.540467746503894E-001  8.751417299842531E-001 
 8.967577307148465E-001  9.189076466635145E-001  9.416046655361091E-001  9.648623007748491E-001 
 9.886943996039862E-001  1.013115151274187E+000  1.038139095510675E+000  1.063781131169775E+000 
 1.090056525109685E+000  1.116980921279876E+000  1.144570350035504E+000  1.172841237681375E+000 
 1.201810416252105E+000  1.231495133533543E+000  1.261913063331805E+000  1.293082315996116E+000 
 1.325021449201218E+000  1.357749478996490E+000  1.391285891127695E+000  1.425650652638561E+000 
 1.460864223758727E+000  1.496947570085553E+000  1.533922175066666E+000  1.571810052790818E+000 
 1.610633761094751E+000  1.650416414993795E+000  1.691181700444138E+000  1.732953888445105E+000 
 1.775757849489701E+000  1.819619068372095E+000  1.864563659360881E+000
    </PP_RAB>
  </PP_MESH>
  <PP_LOCAL type="real" size="563" columns="4">
-1.742273872241780E+001 -1.742273880388040E+001 -1.742273888336080E+001 -1.742273896090620E+001 
-1.742273903656180E+001 -1.742273911037260E+001 -1.742273918238180E+001 -1.742273925263160E+001 
-1.742273932116320E+001 -1.742273938801700E+001 -1.742273945323220E+001 -1.742273951684660E+001 