<UPF version="2.0.1">
  <PP_INFO>
    Generated using FHI98PP, converted with fhi2upf.x v.5.0.2
    Author: unknown
    Generation date: unknown
    Pseudopotential type: SL
    Element:  W
    Functional: PBE

    Suggested minimum cutoff for wavefunctions:   0. Ry
    Suggested minimum cutoff for charge density:   0. Ry
    The Pseudo was generated with a Non-Relativistic Calculation
    L component and cutoff radius for Local Potential:  1   0.0000

    Valence configuration: 
    nl pn  l   occ       Rcut    Rcut US       E pseu
    6s  6  0  2.00      0.000      0.000     0.000000
    5p  5  1  0.00      0.000      0.000     0.000000
    5d  5  2  3.50      0.000      0.000     0.000000
    5f  5  3  0.00      0.000      0.000     0.000000

    Generation configuration: not available.
    Comment:
    tungsten, fhi98PP : Trouiller-Martins-type, GGA Perdew/Burke/Ernzerhof (1996), l
  </PP_INFO>
  <!--                               -->
  <!-- END OF HUMAN READABLE SECTION -->
  <!--                               -->
  <PP_HEADER generated="Generated using FHI98PP, converted with fhi2upf.x v.5.0.2"
             author="unknown"
             date="unknown"
             comment="tungsten, fhi98PP : Trouiller-Martins-type, GGA Perdew/Burke/Ernzerhof (1996), l"
             element=" W"
             pseudo_type="SL"
             relativistic="no"
             is_ultrasoft="F"
             is_paw="F"
             is_coulomb="F"
             has_so="F"
             has_wfc="F"
             has_gipaw="F"
             paw_as_gipaw="F"
             core_correction="F"
             functional="PBE"
             z_valence="5.500000000000000E+000"
             total_psenergy="0.000000000000000E+000"
             wfc_cutoff="0.000000000000000E+000"
             rho_cutoff="0.000000000000000E+000"
             l_max="3"
             l_max_rho="0"
             l_local="1"
             mesh_size="563"
             number_of_wfc="4"
             number_of_proj="3"/>
  <PP_MESH dx="2.439988682353512E-002" mesh="563" xmin="-5.075173815233829E+000" rmax="7.672880357259800E+001"
zmesh="7.350000000000000E+001">
    <PP_R type="real" size="563" columns="4">
 8.503401360544199E-005  8.713435374149700E-005  8.928657227891200E-005  9.149195061420100E-005 
 9.375180179437100E-005  9.606747129869199E-005  9.844033783976999E-005  1.008718141844100E-004 
 1.033633479947700E-004  1.059164226902400E-004  1.085325583306900E-004  1.112133125214500E-004 
 1.139602813407300E-004  1.167751002898500E-004  1.196594452670100E-004  1.226150335651100E-004 
 1.256436248941600E-004  1.287470224290500E-004  1.319270738830500E-004  1.351856726079600E-004 
 1.385247587213700E-004  1.419463202617900E-004  1.454523943722600E-004  1.490450685132500E-004 
 1.527264817055300E-004  1.564988258036600E-004  1.603643468010100E-004  1.643253461669900E-004 
 1.683841822173200E-004  1.725432715180900E-004  1.768050903245800E-004  1.811721760556000E-004 
 1.856471288041700E-004  1.902326128856400E-004  1.949313584239100E-004  1.997461629769800E-004 
 2.046798932025100E-004  2.097354865646100E-004  2.149159530827600E-004  2.202243771239000E-004 
 2.256639192388700E-004  2.312378180440700E-004  2.369493921497500E-004  2.428020421358500E-004 
 2.487992525766100E-004  2.549445941152500E-004  2.612417255899000E-004  2.676943962119700E-004 
 2.743064477984000E-004  2.810818170590200E-004  2.880245379403800E-004  2.951387440275100E-004 
 3.024286710049900E-004  3.098986591788100E-004  3.175531560605300E-004  3.253967190152200E-004 
 3.334340179749000E-004  3.416698382188800E-004  3.501090832228900E-004  3.587567775784900E-004 
 3.676180699846800E-004  3.766982363133000E-004  3.860026827502400E-004  3.955369490141700E-004 
 4.053067116548200E-004  4.153177874326900E-004  4.255761367822800E-004  4.360878673608000E-004 
 4.468592376846200E-004  4.578966608554300E-004  4.692067083785500E-004  4.807961140755100E-004 
 4.926717780931699E-004  5.048407710120701E-004  5.173103380560700E-004  5.300879034060500E-004 
 5.431810746201800E-004  5.565976471633000E-004  5.703456090482400E-004  5.844331455917299E-004 
 5.988686442878400E-004  6.136606998017500E-004  6.288181190868600E-004  6.443499266283000E-004 
 6.602653698160200E-004  6.765739244504800E-004  6.932853003844001E-004  7.104094473039000E-004 
 7.279565606523000E-004  7.459370877004200E-004  7.643617337666200E-004  7.832414685906500E-004 
 8.025875328648400E-004  8.224114449266000E-004  8.427250076162900E-004  8.635403153044100E-004 
 8.848697610924300E-004  9.067260441914100E-004  9.291221774829400E-004  9.520714952667700E-004 
 9.755876611998600E-004  9.996846764314901E-004  1.024376887939400E-003  1.049678997071500E-003 
 1.075606068299100E-003  1.102173538186100E-003  1.129397224579300E-003  1.157293336026400E-003 
 1.185878481426300E-003  1.215169679917500E-003  1.245184371011500E-003  1.275940424975400E-003 
 1.307456153472300E-003  1.339750320463100E-003  1.372842153378500E-003  1.406751354567000E-003 
 1.441498113024800E-003  1.477103116416500E-003  1.513587563392000E-003  1.550973176207800E-003 
 1.589282213660100E-003  1.628537484337500E-003  1.668762360200600E-003  1.709980790497600E-003 
 1.752217316022900E-003  1.795497083728700E-003  1.839845861696800E-003  1.885290054480700E-003 
 1.931856718826300E-003  1.979573579781300E-003  2.028469047201900E-003  2.078572232667800E-003 
 2.129912966814700E-003  2.182521817095100E-003  2.236430105977300E-003  2.291669929594900E-003 
 2.348274176855900E-003  2.406276549024300E-003  2.465711579785200E-003  2.526614655805900E-003 
 2.589022037804300E-003  2.652970882138000E-003  2.718499262926900E-003  2.785646194721100E-003 
 2.854451655730800E-003  2.924956611627300E-003  2.997203039934500E-003  3.071233955020900E-003 
 3.147093433709900E-003  3.224826641522500E-003  3.304479859568100E-003  3.386100512099500E-003 
 3.469737194748300E-003  3.555439703458600E-003  3.643259064134000E-003  3.733247563018100E-003 
 3.825458777824700E-003  3.919947609637000E-003  4.016770315595000E-003  4.115984542390200E-003 
 4.217649360587200E-003  4.321825299793700E-003  4.428574384698600E-003  4.537960172000700E-003 
 4.650047788249100E-003  4.764903968618900E-003  4.882597096643800E-003  5.003197244930900E-003 
 5.126776216880600E-003  5.253407589437600E-003  5.383166756896700E-003  5.516130975792100E-003 
 5.652379410894100E-003  5.791993182343200E-003  5.935055413947100E-003  6.081651282671600E-003 
 6.231868069353600E-003  6.385795210666600E-003  6.543524352370100E-003  6.705149403873600E-003 
 6.870766594149300E-003  7.040474529024800E-003  7.214374249891700E-003  7.392569293864000E-003 
 7.575165755422400E-003  7.762272349581400E-003  7.954000476615999E-003  8.150464288388400E-003 
 8.351780756311600E-003  8.558069740992500E-003  8.769454063595101E-003  8.986059578965901E-003 
 9.208015250566300E-003  9.435453227255300E-003  9.668508921968501E-003  9.907321092341100E-003 
 1.015203192332200E-002  1.040278711182800E-002  1.065973595349000E-002  1.092303143154100E-002 
 1.119283030790000E-002  1.146929321650600E-002  1.175258475895300E-002  1.204287360249900E-002 
 1.234033258048100E-002  1.264513879521900E-002  1.295747372346100E-002  1.327752332443000E-002 
 1.360547815054400E-002  1.394153346086200E-002  1.428588933734600E-002  1.463875080397800E-002 
 1.500032794883600E-002  1.537083604917300E-002  1.575049569958700E-002  1.613953294336700E-002 
 1.653817940706800E-002  1.694667243842300E-002  1.736525524765200E-002  1.779417705226900E-002 
 1.823369322546000E-002  1.868406544812900E-002  1.914556186469700E-002  1.961845724275500E-002 
 2.010303313665100E-002  2.059957805512700E-002  2.110838763308800E-002  2.162976480762600E-002 
 2.216401999837400E-002  2.271147129233400E-002  2.327244463325400E-002  2.384727401569600E-002 
 2.443630168388300E-002  2.503987833547500E-002  2.565836333036200E-002  2.629212490462200E-002 
 2.694154038976600E-002  2.760699643739300E-002  2.828888924939700E-002  2.898762481385700E-002 
 2.970361914675900E-002  3.043729853968400E-002  3.118909981361400E-002  3.195947057901000E-002 
 3.274886950231200E-002  3.355776657901900E-002  3.438664341352100E-002  3.523599350583500E-002 
 3.610632254542900E-002  3.699814871230100E-002  3.791200298549500E-002  3.884842945923600E-002 
 3.980798566688000E-002  4.079124291285100E-002  4.179878661279900E-002  4.283121664213500E-002 
 4.388914769319600E-002  4.497320964121800E-002  4.608404791935600E-002  4.722232390296400E-002 
 4.838871530336700E-002  4.958391657136000E-002  5.080863931067300E-002  5.206361270164600E-002 
 5.334958393537700E-002  5.466731865858100E-002  5.601760142944800E-002  5.740123618475500E-002 
 5.881904671851900E-002  6.027187717246600E-002  6.176059253862600E-002  6.328607917433000E-002 
 6.484924532993599E-002  6.645102168958500E-002  6.809236192531801E-002  6.977424326487400E-002 
 7.149766707351600E-002  7.326365945023200E-002  7.507327183865201E-002  7.692758165306700E-002 
 7.882769291989800E-002  8.077473693501901E-002  8.276987293731400E-002  8.481428879886600E-002 
 8.690920173219800E-002  8.905585901498300E-002  9.125553873265300E-002  9.350955053935001E-002 
 9.581923643767200E-002  9.818597157768200E-002  1.006111650756500E-001  1.030962608530200E-001 
 1.056427384960900E-001  1.082521141369400E-001  1.109259413561300E-001  1.136658121076200E-001 
 1.164733576666800E-001  1.193502496010500E-001  1.222982007661900E-001  1.253189663251200E-001 
 1.284143447933500E-001  1.315861791097400E-001  1.348363577337500E-001  1.381668157697800E-001 
 1.415795361192900E-001  1.450765506614400E-001  1.486599414627800E-001  1.523318420169100E-001 
 1.560944385147200E-001  1.599499711460400E-001  1.639007354333400E-001  1.679490835985500E-001 
 1.720974259634300E-001  1.763482323847300E-001  1.807040337246300E-001  1.851674233576300E-001 
 1.897410587145600E-001  1.944276628648100E-001  1.992300261375700E-001  2.041510077831700E-001 
 2.091935376754200E-001  2.143606180560000E-001  2.196553253219800E-001  2.250808118574400E-001 
 2.306403079103100E-001  2.363371235157000E-001  2.421746504665400E-001  2.481563643330600E-001 
 2.542858265320900E-001  2.605666864474300E-001  2.670026836026800E-001  2.735976498876700E-001 
 2.803555118398900E-001  2.872802929823400E-001  2.943761162190000E-001  3.016472062896100E-001 
 3.090978922849600E-001  3.167326102244000E-001  3.245559056969400E-001  3.325724365676600E-001 
 3.407869757508800E-001  3.492044140519300E-001  3.578297630790100E-001  3.666681582270600E-001 
 3.757248617352700E-001  3.850052658201300E-001  3.945148958858900E-001  4.042594138142700E-001 
 4.142446213354800E-001  4.244764634824700E-001  4.349610321304900E-001  4.457045696241100E-001 
 4.567134724938200E-001  4.679942952644200E-001  4.795537543574500E-001  4.913987320900800E-001 
 5.035362807727100E-001  5.159736269077900E-001  5.287181754924100E-001  5.417775144270800E-001 
 5.551594190334300E-001  5.688718566835500E-001  5.829229915436400E-001  5.973211894347600E-001 
 6.120750228138000E-001  6.271932758773000E-001  6.426849497914700E-001  6.585592680513200E-001 
 6.748256819721900E-001  6.914938763169000E-001  7.085737750619300E-001  7.260755473059600E-001 
 7.440096133244199E-001  7.623866507735300E-001  7.812176010476400E-001  8.005136757935100E-001 
 8.202863635856100E-001  8.405474367661800E-001  8.613089584543000E-001  8.825832897281199E-001 
 9.043830969844100E-001  9.267213594799200E-001  9.496113770590801E-001  9.730667780724300E-001 
 9.971015274908200E-001  1.021729935219800E+000  1.046966664619800E+000  1.072826741235900E+000 
 1.099325561744400E+000  1.126478903119500E+000  1.154302932026600E+000  1.182814214447600E+000 
 1.212029725544500E+000  1.241966859765400E+000  1.272643441201600E+000  1.304077734199300E+000 
 1.336288454234000E+000  1.369294779053600E+000  1.403116360096200E+000  1.437773334190600E+000 
 1.473286335545100E+000  1.509676508033100E+000  1.546965517781500E+000  1.585175566070700E+000 
 1.624329402552600E+000  1.664450338795700E+000  1.705562262163900E+000  1.747689650039400E+000 
 1.790857584395400E+000  1.835091766729900E+000  1.880418533368200E+000  1.926864871142300E+000 
 1.974458433459600E+000  2.023227556766000E+000  2.073201277418100E+000  2.124409348970400E+000 
 2.176882259889900E+000  2.230651251709200E+000  2.285748337626400E+000  2.342206321565800E+000 
 2.400058817708500E+000  2.459340270505900E+000  2.520085975187400E+000  2.582332098774500E+000 
 2.646115701614200E+000  2.711474759444100E+000  2.778448186002400E+000  2.847075856196600E+000 
 2.917398629844700E+000  2.989458376001900E+000  3.063297997889100E+000  3.138961458437000E+000 
 3.216493806460300E+000  3.295941203479900E+000  3.377350951205900E+000  3.460771519700700E+000 
 3.546252576237300E+000  3.633845014870300E+000  3.723600986737600E+000  3.815573931110000E+000 
 3.909818607208500E+000  4.006391126806500E+000  4.105348987638600E+000  4.206751107633300E+000 
 4.310657859991800E+000  4.417131109133600E+000  4.526234247529200E+000  4.638032233443200E+000 
 4.752591629609300E+000  4.869980642860600E+000  4.990269164739300E+000  5.113528813108300E+000 
 5.239832974792100E+000  5.369256849269500E+000  5.501877493446400E+000  5.637773867534600E+000 
 5.777026882062700E+000  5.919719446049600E+000  6.065936516367000E+000  6.215765148321300E+000 
 6.369294547484800E+000  6.526616122807700E+000  6.687823541041100E+000  6.853012782504800E+000 
 7.022282198232600E+000  7.195732568529000E+000  7.373467162971600E+000  7.555591801897000E+000 
 7.742214919403900E+000  7.933447627913200E+000  8.129403784322600E+000  8.330200057795400E+000 
 8.535955999222899E+000  8.746794112403700E+000  8.962839926980100E+000  9.184222073176500E+000 
 9.411072358384001E+000  9.643525845636100E+000  9.881720934023299E+000  1.012579944109400E+001 
 1.037590668728900E+001  1.063219158246500E+001  1.089480671455200E+001  1.116390844040100E+001 
 1.143965697887900E+001  1.172221650625700E+001  1.201175525396200E+001  1.230844560873500E+001 
 1.261246421527000E+001  1.292399208138800E+001  1.324321468579800E+001  1.357032208853700E+001 
 1.390550904412400E+001  1.424897511751400E+001  1.460092480291600E+001  1.496156764554800E+001 
 1.533111836639300E+001  1.570979699004300E+001  1.609782897569700E+001  1.649544535139700E+001 
 1.690288285157700E+001  1.732038405801100E+001  1.774819754424300E+001  1.818657802358600E+001 
 1.863578650076900E+001  1.909609042733800E+001  1.956776386089300E+001  2.005108762825700E+001 
 2.054634949267500E+001  2.105384432514400E+001  2.157387427997500E+001  2.210674897469100E+001 
 2.265278567436500E+001  2.321230948052200E+001  2.378565352469100E+001  2.437315916675100E+001 
 2.497517619817000E+001  2.559206305026500E+001  2.622418700760600E+001  2.687192442669400E+001 
 2.753566096003300E+001  2.821579178574600E+001  2.891272184285400E+001  2.962686607237300E+001 
 3.035864966436000E+001  3.110850831107000E+001  3.187688846635300E+001  3.266424761147200E+001 
 3.347105452747600E+001  3.429778957430400E+001  3.514494497679000E+001  3.601302511771600E+001 
 3.690254683812400E+001  3.781403974502500E+001  3.874804652672800E+001  3.970512327593800E+001 
 4.068583982085300E+001  4.169078006442800E+001  4.272054233202000E+001  4.377573972762100E+001 
 4.485700049889300E+001  4.596496841121600E+001  4.710030313097300E+001  4.826368061830800E+001 
 4.945579352958000E+001  5.067735162976100E+001  5.192908221501600E+001  5.321173054572600E+001 
 5.452606029020600E+001  5.587285397937400E+001  5.725291347266500E+001  5.866706043543900E+001 
 6.011613682819500E+001  6.160100540785100E+001  6.312255024142500E+001  6.468167723238800E+001 
 6.627931466002801E+001  6.791641373213101E+001  6.959394915131500E+001  7.131291969535199E+001 
 7.307434881182699E+001  7.487928522747900E+001  7.672880357259800E+001
    </PP_R>
    <PP_RAB type="real" size="563" columns="4">
 2.074820308123730E-006  2.126068369734401E-006  2.178582258466841E-006  2.232393240250969E-006 
 2.287533353285149E-006  2.344035427111293E-006  2.401933102160950E-006  2.461260849784269E-006 
 2.522053992774064E-006  2.584348726395563E-006  2.648182139937560E-006  2.713592238793821E-006 
 2.780617967092033E-006  2.849299230879303E-006  2.919676921882039E-006  2.991792941852644E-006 
 3.065690227516204E-006  3.141412776135958E-006  3.219005671706577E-006  3.298515111797696E-006 
 3.379988435058938E-006  3.463474149404946E-006  3.549021960895340E-006  3.636682803329338E-006 
 3.726508868571639E-006  3.818553637625442E-006  3.912871912474781E-006  4.009519848712787E-006 
 4.108554988976123E-006  4.210036297203887E-006  4.314024193744656E-006  4.420580591330220E-006 
 4.529768931935995E-006  4.641654224554985E-006  4.756303083901364E-006  4.873783770073713E-006 
 4.994166229194500E-006  5.117522135055555E-006  5.243924931791528E-006  5.373449877606677E-006 
 5.506174089583797E-006  5.642176589596516E-006  5.781538351359341E-006  5.924342348637946E-006 
 6.070673604649412E-006  6.220619242684198E-006  6.374268537978580E-006  6.531712970866637E-006 
 6.693046281246905E-006  6.858364524393692E-006  7.027766128146270E-006  7.201351951511545E-006 
 7.379225344713894E-006  7.561492210728248E-006  7.748261068333317E-006  7.939643116721027E-006 
 8.135752301704135E-006  8.336705383556227E-006  8.542622006530155E-006  8.753624770091318E-006 
 8.969839301912605E-006  9.191394332669808E-006  9.418421772686789E-006  9.651056790472130E-006 
 9.889437893196792E-006  1.013370700915865E-005  1.038400957228493E-005  1.064049460872032E-005 
 1.090331482555591E-005  1.117262670174714E-005  1.144859058128007E-005  1.173137076863793E-005 
 1.202113562662316E-005  1.231805767660072E-005  1.262231370121280E-005  1.293408484963264E-005 
 1.325355674541858E-005  1.358091959703045E-005  1.391636831107726E-005  1.426010260836083E-005 
 1.461232714278721E-005  1.497325162321406E-005  1.534309093830761E-005  1.572206528448368E-005 
 1.611040029701045E-005  1.650832718434671E-005  1.691608286579991E-005  1.733391011258530E-005 
 1.776205769236600E-005  1.820078051736764E-005  1.865033979614661E-005  1.911100318911130E-005 
 1.958304496788237E-005  2.006674617858903E-005  2.056239480920025E-005  2.107028596098744E-005 
 2.159072202422385E-005  2.212401285822211E-005  2.267047597582025E-005  2.323043673242304E-005 
 2.380422851971391E-005  2.439219296415069E-005  2.499468013036648E-005  2.561204872958645E-005 
 2.624466633320563E-005  2.689290959163610E-005  2.755716445854960E-005  2.823782642067556E-005 
 2.893530073326742E-005  2.965000266137840E-005  3.038235772711537E-005  3.113280196297307E-005 
 3.190178217145868E-005  3.268975619109455E-005  3.349719316901364E-005  3.432457384028953E-005 
 3.517239081414456E-005  3.604114886725362E-005  3.693136524427509E-005  3.784356996580912E-005 
 3.877830614396380E-005  3.973613030571960E-005  4.071761272426999E-005  4.172333775856056E-005 
 4.275390420119724E-005  4.380992563496764E-005  4.489203079815137E-005  4.600086395886545E-005 
 4.713708529864763E-005  4.830137130552399E-005  4.949441517677048E-005  5.071692723163703E-005 
 5.196963533425860E-005  5.325328532701667E-005  5.456864147459278E-005  5.591648691901426E-005 
 5.729762414591406E-005  5.871287546231958E-005  6.016308348623887E-005  6.164911164834910E-005 
 6.317184470606319E-005  6.473218927030133E-005  6.633107434528000E-005  6.796945188160612E-005 
 6.964829734308396E-005  7.136861028745689E-005  7.313141496155722E-005  7.493776091110812E-005 
 7.678872360561209E-005  7.868540507866986E-005  8.062893458411287E-005  8.262046926834211E-005 
 8.466119485926876E-005  8.675232637229311E-005  8.889510883368808E-005  9.109081802187994E-005 
 9.334076122702167E-005  9.564627802932982E-005  9.800874109665345E-005  1.004295570017409E-004 
 1.029101670596830E-004  1.054520481860570E-004  1.080567137762525E-004  1.107257146065271E-004 
 1.134606397573078E-004  1.162631175593145E-004  1.191348165630299E-004  1.220774465321367E-004 
 1.250927594614782E-004  1.281825506201779E-004  1.313486596204961E-004  1.345929715131236E-004 
 1.379174179094962E-004  1.413239781318611E-004  1.448146803917186E-004  1.483916029973943E-004 
 1.520568755914302E-004  1.558126804185377E-004  1.596612536248764E-004  1.636048865894098E-004 
 1.676459272881688E-004  1.717867816921869E-004  1.760299151999836E-004  1.803778541054225E-004 
 1.848331871018255E-004  1.893985668232422E-004  1.940767114237748E-004  1.988704061959417E-004 
 2.037825052289816E-004  2.088159331081375E-004  2.139736866559106E-004  2.192588367163116E-004 
 2.246745299832031E-004  2.302239908737885E-004  2.359105234483710E-004  2.417375133775452E-004 
 2.477084299579723E-004  2.538268281779330E-004  2.600963508339243E-004  2.665207306995172E-004 
 2.731037927477938E-004  2.798494564286855E-004  2.867617380024570E-004  2.938447529311143E-004 
 3.011027183285195E-004  3.085399554712369E-004  3.161608923713786E-004  3.239700664129398E-004 
 3.319721270533536E-004  3.401718385915607E-004  3.485740830047896E-004  3.571838628549969E-004 
 3.660063042675091E-004  3.750466599829349E-004  3.843103124844994E-004  3.938027772028715E-004 
 4.035297057997784E-004  4.134968895330431E-004  4.237102627045082E-004  4.341759061933094E-004 
 4.449000510762830E-004  4.558890823378706E-004  4.671495426715968E-004  4.786881363755849E-004 
 4.905117333440606E-004  5.026273731576766E-004  5.150422692746556E-004  5.277638133257573E-004 
 5.407995795148947E-004  5.541573291289166E-004  5.678450151583849E-004  5.818707870328124E-004 
 5.962429954725059E-004  6.109701974606790E-004  6.260611613379765E-004  6.415248720230259E-004 
 6.573705363619907E-004  6.736075886101265E-004  6.902456960488062E-004  7.072947647412091E-004 
 7.247649454303105E-004  7.426666395824404E-004  7.610105055801219E-004  7.798074650679445E-004 
 7.990687094551336E-004  8.188057065786730E-004  8.390302075311718E-004  8.597542536571925E-004 
 8.809901837225220E-004  9.027506412604660E-004  9.250485820996036E-004  9.478972820774461E-004 
 9.713103449447803E-004  9.953017104648936E-004  1.019885662713390E-003  1.045076838582408E-003 
 1.070890236495400E-003  1.097341225336838E-003  1.124445553602655E-003  1.152219358776639E-003 
 1.180679176938417E-003  1.209841952608792E-003  1.239725048838239E-003  1.270346257544528E-003 
 1.301723810105886E-003  1.333876388215506E-003  1.366823135004430E-003  1.400583666439031E-003 
 1.435178083000088E-003  1.470626981650180E-003  1.506951468096942E-003  1.544173169358935E-003 
 1.582314246642102E-003  1.621397408534152E-003  1.661445924524951E-003  1.702483638860733E-003 
 1.744534984740584E-003  1.787624998863680E-003  1.831779336335595E-003  1.877024285943092E-003 
 1.923386785805892E-003  1.970894439415286E-003  2.019575532068844E-003  2.069459047710953E-003 
 2.120574686189414E-003  2.172952880938285E-003  2.226624817097459E-003  2.281622450079778E-003 
 2.337978524596749E-003  2.395726594154277E-003  2.454901041029869E-003  2.515537096743342E-003 
 2.577670863032913E-003  2.641339333349742E-003  2.706580414883666E-003  2.773432951131136E-003 
 2.841936745024119E-003  2.912132582626288E-003  2.984062257417012E-003  3.057768595175337E-003 
 3.133295479476157E-003  3.210687877819077E-003  3.289991868401195E-003  3.371254667550859E-003 
 3.454524657839279E-003  3.539851416887996E-003  3.627285746885188E-003  3.716879704833236E-003 
 3.808686633542429E-003  3.902761193391085E-003  3.999159394867668E-003  4.097938631921059E-003 
 4.199157716129407E-003  4.302876911717883E-003  4.409157971437246E-003  4.518064173331786E-003 
 4.629660358412997E-003  4.744012969265806E-003  4.861190089606652E-003  4.981261484819985E-003 
 5.104298643495178E-003  5.230374819989440E-003  5.359565078043101E-003  5.491946335470938E-003 
 5.627597409956856E-003  5.766599065982920E-003  5.909034062912753E-003  6.054987204266611E-003 
 6.204545388212079E-003  6.357797659300854E-003  6.514835261485549E-003  6.675751692444334E-003 
 6.840642759247576E-003  7.009606635401107E-003  7.182743919295422E-003  7.360157694102035E-003 
 7.541953589146273E-003  7.728239842798223E-003  7.919127366915274E-003  8.114729812878217E-003 
 8.315163639256280E-003  8.520548181145988E-003  8.731005721220229E-003  8.946661562534331E-003 
 9.167644103128970E-003  9.394084912476227E-003  9.626118809814458E-003  9.863883944416839E-003 
 1.010752187784388E-002  1.035717766822671E-002  1.061299995663198E-002  1.087514105556071E-002 
 1.114375703963293E-002  1.141900783851193E-002  1.170105733212314E-002  1.199007344822661E-002 
 1.228622826239793E-002  1.258969810047901E-002  1.290066364356078E-002  1.321931003555692E-002 
 1.354582699343520E-002  1.388040892017291E-002  1.422325502050134E-002  1.457456941950753E-002 
 1.493456128416940E-002  1.530344494788836E-002  1.568144003810122E-002  1.606877160704234E-002 
 1.646567026573634E-002  1.687237232129995E-002  1.728911991763613E-002  1.771616117960174E-002 
 1.815375036073797E-002  1.860214799464813E-002  1.906162105011603E-002  1.953244309005373E-002 
 2.001489443437807E-002  2.050926232690734E-002  2.101584110638183E-002  2.153493238170943E-002 
 2.206684521153779E-002  2.261189628826265E-002  2.317041012658289E-002  2.374271925670926E-002 
 2.432916442235000E-002  2.493009478358099E-002  2.554586812473717E-002  2.617685106741796E-002 
 2.682341928878253E-002  2.748595774521578E-002  2.816486090152380E-002  2.886053296579004E-002 
 2.957338813004614E-002  3.030385081685708E-002  3.105235593203331E-002  3.181934912355504E-002 
 3.260528704690629E-002  3.341063763696537E-002  3.423588038659783E-002  3.508150663214738E-002 
 3.594801984596123E-002  3.683593593615735E-002  3.774578355378001E-002  3.867810440755830E-002 
 3.963345358642386E-002  4.061239989000977E-002  4.161552616729169E-002  4.264342966362506E-002 
 4.369672237631726E-002  4.477603141901067E-002  4.588199939506198E-002  4.701528478011770E-002 
 4.817656231418870E-002  4.936652340334788E-002  5.058587653141008E-002  5.183534768173769E-002 
 5.311568076947493E-002  5.442763808448144E-002  5.577200074516771E-002  5.714956916357403E-002 
 5.856116352191491E-002  6.000762426090621E-002  6.148981258015070E-002  6.300861095087973E-002 
 6.456492364136571E-002  6.615967725530816E-002  6.779382128351502E-002  6.946832866921640E-002 
 7.118419638734710E-002  7.294244603811546E-002  7.474412445525577E-002  7.659030432930154E-002 
 7.848208484623301E-002  8.042059234193570E-002  8.240698097278265E-002  8.444243340281073E-002 
 8.652816150785997E-002  8.866540709710262E-002  9.085544265240114E-002  9.309957208591499E-002 
 9.539913151643911E-002  9.775549006489395E-002  1.001700506694963E-001  1.026442509210335E-001 
 1.051795639187820E-001  1.077774991475760E-001  1.104396033765211E-001  1.131674615799219E-001 
 1.159626978809473E-001  1.188269765186055E-001  1.217620028386161E-001  1.247695243087284E-001 
 1.278513315591546E-001  1.310092594486666E-001  1.342451881570473E-001  1.375610443045281E-001 
 1.409588020988499E-001  1.444404845106902E-001  1.480081644781037E-001  1.516639661407137E-001 
 1.554100661043885E-001  1.592486947371675E-001  1.631821374971767E-001  1.672127362933566E-001 
 1.713428908798009E-001  1.755750602845333E-001  1.799117642735596E-001  1.843555848511166E-001 
 1.889091677969403E-001  1.935752242415252E-001  1.983565322802895E-001  2.032559386276135E-001 
 2.082763603117144E-001  2.134207864114136E-001  2.186922798357762E-001  2.240939791477197E-001 
 2.296291004326694E-001  2.353009392133567E-001  2.411128724119263E-001  2.470683603605088E-001 
 2.531709488614128E-001  2.594242712982888E-001  2.658320507993593E-001  2.723981024540929E-001 
 2.791263355847113E-001  2.860207560736461E-001  2.930854687486762E-001  3.003246798267719E-001 
 3.077426994184747E-001  3.153439440941313E-001  3.231329395132495E-001  3.311143231192216E-001 
 3.392928469002697E-001  3.476733802187096E-001  3.562609127100972E-001  3.650605572540360E-001 
 3.740775530182098E-001  3.833172685777619E-001  3.927852051116311E-001  4.024869996778953E-001 
 4.124284285699514E-001  4.226154107556304E-001  4.330540114012731E-001  4.437504454828895E-001 
 4.547110814863272E-001  4.659424451990397E-001  4.774512235954498E-001  4.892442688182561E-001 
 5.013286022580682E-001  5.137114187338407E-001  5.264000907765652E-001  5.394021730187615E-001 
 5.527254066923037E-001  5.663777242376081E-001  5.803672540262796E-001  5.947023252007321E-001 
 6.093914726331962E-001  6.244434420072410E-001  6.398671950248066E-001  6.556719147419225E-001 
 6.718670110360396E-001  6.884621262086343E-001  7.054671407259895E-001  7.228921791019337E-001 
 7.407476159257366E-001  7.590440820391097E-001  7.777924708654653E-001  7.970039448958443E-001 
 8.166899423347872E-001  8.368621839104404E-001  8.575326798530452E-001  8.787137370453979E-001 
 9.004179663504295E-001  9.226582901192688E-001  9.454479498852363E-001  9.688005142473972E-001 
 9.927298869492915E-001  1.017250315156937E+000  1.042376397941329E+000  1.068123094970483E+000 
 1.094505735416248E+000  1.121540027081037E+000  1.149242065749938E+000  1.177628344773961E+000 
 1.206715764889873E+000  1.236521644282661E+000  1.267063728896441E+000  1.298360203000161E+000 
 1.330429700014279E+000  1.363291313604629E+000  1.396964609050675E+000  1.431469634894207E+000 
 1.466826934876110E+000  1.503057560167539E+000  1.540183081903680E+000  1.578225604026696E+000 
 1.617207776446156E+000  1.657152808524383E+000  1.698084482894944E+000  1.740027169622437E+000 
 1.783005840712107E+000  1.827046084977693E+000  1.872174123276648E+000
    </PP_RAB>
  </PP_MESH>
  <PP_LOCAL type="real" size="563" columns="4">
-3.759070441388400E+000 -3.759070520022400E+000 -3.759070596738800E+000 -3.759070671582800E+000 
-3.759070744598200E+000 -3.759070815828000E+000 -3.759070885314000E+000 -3.759070953096600E+000 
-3.759071019215800E+000 -3.759071083710000E+000 -3.759071146616800E+000 -3.759071207972800E+000 