<UPF version="2.0.1">
  <PP_INFO>
    Generated using FHI98PP, converted with fhi2upf.x v.5.0.2
    Author: unknown
    Generation date: unknown
    Pseudopotential type: SL
    Element:  W
    Functional: PBE

    Suggested minimum cutoff for wavefunctions:   0. Ry
    Suggested minimum cutoff for charge density:   0. Ry
    The Pseudo was generated with a Non-Relativistic Calculation
    L component and cutoff radius for Local Potential:  1   0.0000

    Valence configuration: 
    nl pn  l   occ       Rcut    Rcut US       E pseu
    6s  6  0  2.00      0.000      0.000     0.000000
    6p  6  1  0.00      0.000      0.000     0.000000
    5d  5  2  3.85      0.000      0.000     0.000000
    5f  5  3  0.00      0.000      0.000     0.000000

    Generation configuration: not available.
    Comment:
    molybdenum, fhi98PP : Trouiller-Martins-type, GGA Perdew/Burke/Ernzerhof (1996),
  </PP_INFO>
  <!--                               -->
  <!-- END OF HUMAN READABLE SECTION -->
  <!--                               -->
  <PP_HEADER generated="Generated using FHI98PP, converted with fhi2upf.x v.5.0.2"
             author="unknown"
             date="unknown"
             comment="molybdenum, fhi98PP : Trouiller-Martins-type, GGA Perdew/Burke/Ernzerhof (1996),"
             element=" W"
             pseudo_type="SL"
             relativistic="no"
             is_ultrasoft="F"
             is_paw="F"
             is_coulomb="F"
             has_so="F"
             has_wfc="F"
             has_gipaw="F"
             paw_as_gipaw="F"
             core_correction="F"
             functional="PBE"
             z_valence="5.850000000000000E+000"
             total_psenergy="0.000000000000000E+000"
             wfc_cutoff="0.000000000000000E+000"
             rho_cutoff="0.000000000000000E+000"
             l_max="3"
             l_max_rho="0"
             l_local="1"
             mesh_size="563"
             number_of_wfc="4"
             number_of_proj="3"/>
  <PP_MESH dx="2.439988682353512E-002" mesh="563" xmin="-5.075173815233826E+000" rmax="7.636515995377000E+001"
zmesh="7.384999999999999E+001">
    <PP_R type="real" size="563" columns="4">
 8.463100880162499E-005  8.672139471902500E-005  8.886341316858500E-005  9.105833947384900E-005 
 9.330748045885299E-005  9.561217522618700E-005  9.797379595427400E-005  1.003937487143400E-004 
 1.028734743075900E-004  1.054144491229900E-004  1.080181860163200E-004  1.106862352109300E-004 
 1.134201852206400E-004  1.162216637955900E-004  1.190923388913400E-004  1.220339196619500E-004 
 1.250481574776000E-004  1.281368469673000E-004  1.313018270873900E-004  1.345449822164500E-004 
 1.378682432772000E-004  1.412735888861400E-004  1.447630465316300E-004  1.483386937809600E-004 
 1.520026595173500E-004  1.557571252074300E-004  1.596043262000600E-004  1.635465530572000E-004 
 1.675861529177100E-004  1.717255308947800E-004  1.759671515078800E-004  1.803135401501200E-004 
 1.847672845918300E-004  1.893310365212500E-004  1.940075131233200E-004  1.987994986974700E-004 
 2.037098463153000E-004  2.087414795192900E-004  2.138973940634100E-004  2.191806596967800E-004 
 2.245944219912900E-004  2.301419042144700E-004  2.358264092485700E-004  2.416513215570100E-004 
 2.476201091994700E-004  2.537363258966900E-004  2.600036131463400E-004  2.664257023910600E-004 
 2.730064172401200E-004  2.797496757459500E-004  2.866594927368700E-004  2.937399822074700E-004 
 3.009953597680000E-004  3.084299451542700E-004  3.160481647995800E-004  3.238545544701300E-004 
 3.318537619655400E-004  3.400505498860900E-004  3.484497984682700E-004  3.570565084904400E-004 
 3.658758042501600E-004  3.749129366151300E-004  3.841732861495300E-004  3.936623663174200E-004 
 4.033858267654600E-004  4.133494566865700E-004  4.235591882667300E-004  4.340211002169100E-004 
 4.447414213922700E-004  4.557265345006600E-004  4.669829799028300E-004  4.785174595064300E-004 
 4.903368407562400E-004  5.024481607229200E-004  5.148586302927700E-004  5.275756384610000E-004 
 5.406067567309901E-004  5.539597436222500E-004  5.676425492897100E-004  5.816633202571700E-004 
 5.960304042675200E-004  6.107523552529300E-004  6.258379384276800E-004  6.412961355068400E-004 
 6.571361500538600E-004  6.733674129601900E-004  6.899995880603100E-004  7.070425778854000E-004 
 7.245065295591700E-004  7.424018408392800E-004  7.607391663080100E-004  7.795294237158200E-004 
 7.987838004816000E-004  8.185137603534900E-004  8.387310502342200E-004  8.594477071750100E-004 
 8.806760655422300E-004  9.024287643611200E-004  9.247187548408401E-004  9.475593080854100E-004 
 9.709640229951200E-004  9.949468343630999E-004  1.019522021171900E-003  1.044704215094800E-003 
 1.070508409207700E-003  1.096949966915100E-003  1.124044631097900E-003  1.151808533486000E-003 
 1.180258204263100E-003  1.209410581908400E-003  1.239283023281500E-003  1.269893313956600E-003 
 1.301259678811300E-003  1.333400792878000E-003  1.366335792462100E-003  1.400084286535900E-003 
 1.434666368413300E-003  1.470102627713100E-003  1.506414162617600E-003  1.543622592434300E-003 
 1.581750070467400E-003  1.620819297208000E-003  1.660853533849000E-003  1.701876616135100E-003 
 1.743912968553600E-003  1.786987618876900E-003  1.831126213063100E-003  1.876355030525800E-003 
 1.922700999779800E-003  1.970191714474300E-003  2.018855449821800E-003  2.068721179432400E-003 
 2.119818592564400E-003  2.172178111800800E-003  2.225830911162200E-003  2.280808934668000E-003 
 2.337144915354300E-003  2.394872394763500E-003  2.454025742914200E-003  2.514640178764100E-003 
 2.576751791179600E-003  2.640397560421800E-003  2.705615380164200E-003  2.772444080054200E-003 
 2.840923448831600E-003  2.911094258017700E-003  2.982998286190700E-003  3.056678343859700E-003 
 3.132178298953000E-003  3.209543102937100E-003  3.288818817579700E-003  3.370052642373900E-003 
 3.453292942640500E-003  3.538589278323700E-003  3.625992433498300E-003  3.715554446605700E-003 
 3.807328641436900E-003  3.901369658880400E-003  3.997733489454700E-003  4.096477506644300E-003 
 4.197660501058400E-003  4.301342715434500E-003  4.407585880505800E-003  4.516453251754300E-003 
 4.628009647072600E-003  4.742321485355300E-003  4.859456826043600E-003  4.979485409646800E-003 
 5.102478699265100E-003  5.228509923137000E-003  5.357654118238400E-003  5.489988174958900E-003 
 5.625590882880400E-003  5.764542977687600E-003  5.906927189236400E-003  6.052828290810600E-003 
 6.202333149593600E-003  6.355530778388600E-003  6.512512388614800E-003  6.673371444613500E-003 
 6.838203719295500E-003  7.007107351162100E-003  7.180182902735800E-003  7.357533420433400E-003 
 7.539264495918100E-003  7.725484328967300E-003  7.916303791892700E-003  8.111836495552501E-003 
 8.312198856992600E-003  8.517510168760400E-003  8.727892669928700E-003  8.943471618876001E-003 
 9.164375367862200E-003  9.390735439448400E-003  9.622686604802800E-003  9.860366963941400E-003 
 1.010391802795100E-002  1.035348480324100E-002  1.060921587788100E-002  1.087126351006500E-002 
 1.113978371876300E-002  1.141493637661700E-002  1.169688530511900E-002  1.198579837215600E-002 
 1.228184759194800E-002  1.258520922746900E-002  1.289606389538800E-002  1.321459667360400E-002 
 1.354099721144200E-002  1.387545984256400E-002  1.421818370067600E-002  1.456937283808200E-002 
 1.492923634718300E-002  1.529798848495800E-002  1.567584880053700E-002  1.606304226591000E-002 
 1.645979940987800E-002  1.686635645530200E-002  1.728295545974800E-002  1.770984445960400E-002 
 1.814727761775600E-002  1.859551537491500E-002  1.905482460467500E-002  1.952547877241100E-002 
 2.000775809808900E-002  2.050194972311200E-002  2.100834788127300E-002  2.152725407394000E-002 
 2.205897724956600E-002  2.260383398763100E-002  2.316214868712500E-002  2.373425375969700E-002 
 2.432048982756200E-002  2.492120592630300E-002  2.553675971268200E-002  2.616751767758500E-002 
 2.681385536422200E-002  2.747615759171800E-002  2.815481868423400E-002  2.885024270573400E-002 
 2.956284370056600E-002  3.029304593997000E-002  3.104128417468700E-002  3.180800389380200E-002 
 3.259366158997900E-002  3.339872503125100E-002  3.422367353952300E-002  3.506899827594900E-002 
 3.593520253336500E-002  3.682280203593900E-002  3.773232524622700E-002  3.866431367980900E-002 
 3.961932222770000E-002  4.059791948672400E-002  4.160068809804600E-002  4.262822509406800E-002 
 4.368114225389200E-002  4.476006646756300E-002  4.586564010931100E-002  4.699852142001100E-002 
 4.815938489908600E-002  4.934892170609300E-002  5.056784007223400E-002  5.181686572201800E-002 
 5.309674230535200E-002  5.440823184029400E-002  5.575211516674900E-002  5.712919241136800E-002 
 5.854028346392900E-002  5.998622846548800E-002  6.146788830858500E-002  6.298614514980699E-002 
 6.454190293500700E-002  6.613608793750200E-002  6.776964930955801E-002  6.944355964750400E-002 
 7.115881557079801E-002  7.291643831539700E-002  7.471747434178699E-002  7.656299595802900E-002 
 7.845410195819200E-002  8.039191827656000E-002  8.237759865799101E-002  8.441232534484300E-002 
 8.649730978086100E-002  8.863379333244800E-002  9.082304802775901E-002  9.306637731404500E-002 
 9.536511683370200E-002  9.772063521949401E-002  1.001343349094200E-001  1.026076529816800E-001 
 1.051420620103300E-001  1.077390709419800E-001  1.104002259942500E-001  1.131271115763100E-001 
 1.159213512322400E-001  1.187846086076800E-001  1.217185884402900E-001  1.247250375747600E-001 
 1.278057460028600E-001  1.309625479291300E-001  1.341973228629800E-001  1.375119967376900E-001 
 1.409085430571100E-001  1.443889840706300E-001  1.479553919771700E-001  1.516098901590100E-001 
 1.553546544459300E-001  1.591919144107500E-001  1.631239546966900E-001  1.671531163777000E-001 
 1.712817983522300E-001  1.755124587715300E-001  1.798476165031900E-001  1.842898526308200E-001 
 1.888418119908000E-001  1.935062047469700E-001  1.982858080042200E-001  2.031834674619200E-001 
 2.082020991082300E-001  2.133446909562100E-001  2.186143048228300E-001  2.240140781519500E-001 
 2.295472258823000E-001  2.352170423616000E-001  2.410269033079300E-001  2.469802678196300E-001 
 2.530806804347800E-001  2.593317732415200E-001  2.657372680405800E-001  2.723009785611800E-001 
 2.790268127316500E-001  2.859187750061200E-001  2.929809687487700E-001  3.002175986768600E-001 
 3.076329733641800E-001  3.152315078062800E-001  3.230177260490900E-001  3.309962638825000E-001 
 3.391718716004000E-001  3.475494168289300E-001  3.561338874246100E-001  3.649303944439900E-001 
 3.739441751867600E-001  3.831805963138700E-001  3.926451570428300E-001  4.023434924217800E-001 
 4.122813766846000E-001  4.224647266887100E-001  4.328996054379200E-001  4.435922256922400E-001 
 4.545489536668400E-001  4.657763128224100E-001  4.772809877491200E-001  4.890698281465300E-001 
 5.011498529017500E-001  5.135282542684200E-001  5.262124021488500E-001  5.392098484819300E-001 
 5.525283317394299E-001  5.661757815333900E-001  5.801603233372700E-001  5.944902833237000E-001 
 6.091741933217900E-001  6.242207958968400E-001  6.396390495554900E-001  6.554381340795100E-001 
 6.716274559912800E-001  6.882166541542600E-001  7.052156055118700E-001  7.226344309680200E-001 
 7.404835014129300E-001  7.587734438978300E-001  7.775151479621000E-001  7.967197721167700E-001 
 8.163987504880500E-001  8.365637996251000E-001  8.572269254758400E-001  8.784004305351000E-001 
 9.000969211693099E-001  9.223293151222000E-001  9.451108492057100E-001  9.684550871811000E-001 
 9.923759278344700E-001  1.016887613252000E+000  1.042004737299300E+000  1.067742254310600E+000 
 1.094115487992100E+000  1.121140140545500E+000  1.148832302016900E+000  1.177208459876800E+000 
 1.206285508835700E+000  1.236080760904000E+000  1.266611955698300E+000  1.297897271004000E+000 
 1.329955333597800E+000  1.362805230337700E+000  1.396466519527000E+000  1.430959242559400E+000 
 1.466303935850600E+000  1.502521643066100E+000  1.539633927649800E+000  1.577662885662800E+000 
 1.616631158938600E+000  1.656561948564400E+000  1.697479028694000E+000  1.739406760702700E+000 
 1.782370107692100E+000  1.826394649352100E+000  1.871506597191100E+000  1.917732810141700E+000 
 1.965100810552200E+000  2.013638800572800E+000  2.063375678947000E+000  2.114341058216900E+000 
 2.166565282354900E+000  2.220079444829100E+000  2.274915407116400E+000  2.331105817672100E+000 
 2.388684131368600E+000  2.447684629413400E+000  2.508142439759900E+000  2.570093558022000E+000 
 2.633574868905200E+000  2.698624168167100E+000  2.765280185120800E+000  2.833582605693300E+000 
 2.903572096054000E+000  2.975290326826500E+000  3.048779997899100E+000  3.124084863847200E+000 
 3.201249759984200E+000  3.280320629055800E+000  3.361344548593500E+000  3.444369758943800E+000 
 3.529445691989700E+000  3.616623000581800E+000  3.705953588696200E+000  3.797490642337000E+000 
 3.891288661202700E+000  3.987403491134400E+000  4.085892357365500E+000  4.186813898592400E+000 
 4.290228201887600E+000  4.396196838474200E+000  4.504782900384600E+000  4.616051038024100E+000 
 4.730067498663200E+000  4.846900165880200E+000  4.966618599977500E+000  5.089294079396900E+000 
 5.214999643158000E+000  5.343810134344000E+000  5.475802244662300E+000  5.611054560105500E+000 
 5.749647607740100E+000  5.891663903651300E+000  6.037188002071400E+000  6.186306545722600E+000 
 6.339108317402000E+000  6.495684292841800E+000  6.656127694875000E+000  6.820534048938400E+000 
 6.989001239947200E+000  7.161629570573900E+000  7.338521820967000E+000  7.519783309944900E+000 
 7.705521957700600E+000  7.895848350055800E+000  8.090875804302099E+000  8.290720436668400E+000 
 8.495501231454099E+000  8.705340111870999E+000  8.920362012634200E+000  9.140694954346300E+000 
 9.366470119718700E+000  9.597821931675700E+000  9.834888133388100E+000  1.007780987028300E+001 
 1.032673177407900E+001  1.058180204889900E+001  1.084317255950600E+001  1.111099892172600E+001 
 1.138544059509300E+001  1.166666097779200E+001  1.195482750394300E+001  1.225011174329000E+001 
 1.255268950335000E+001  1.286274093408200E+001  1.318045063515400E+001  1.350600776584300E+001 
 1.383960615765900E+001  1.418144442975300E+001  1.453172610716800E+001  1.489065974201500E+001 
 1.525845903764300E+001  1.563534297587200E+001  1.602153594737700E+001  1.641726788527700E+001 
 1.682277440204300E+001  1.723829692977400E+001  1.766408286393900E+001  1.810038571067800E+001 
 1.854746523773200E+001  1.900558762910400E+001  1.947502564354300E+001  1.995605877693800E+001 
 2.044897342872900E+001  2.095406307241800E+001  2.147162843030700E+001  2.200197765253600E+001 
 2.254542650055300E+001  2.310229853511700E+001  2.367292530893400E+001  2.425764656406500E+001 
 2.485681043419700E+001  2.547077365192200E+001  2.609990176112500E+001  2.674456933462400E+001 
 2.740516019719000E+001  2.808206765406000E+001  2.877569472511500E+001  2.948645438482600E+001 
 3.021476980813100E+001  3.096107462239200E+001  3.172581316556500E+001  3.250944075075400E+001 
 3.331242393729800E+001  3.413524080854900E+001  3.497838125652000E+001  3.584234727355600E+001 
 3.672765325121300E+001  3.763482628651800E+001  3.856440649579500E+001  3.951694733624100E+001 
 4.049301593544600E+001  4.149319342905200E+001  4.251807530675000E+001  4.356827176682600E+001 
 4.464440807946700E+001  4.574712495903000E+001  4.687707894551800E+001  4.803494279547200E+001 
 4.922140588252000E+001  5.043717460781800E+001  5.168297282063200E+001  5.295954224930100E+001 
 5.426764294285900E+001  5.560805372354800E+001  5.698157265051900E+001  5.838901749498700E+001 
 5.983122622711300E+001  6.130905751492300E+001  6.282339123554100E+001  6.437512899905900E+001 
 6.596519468533600E+001  6.759453499406401E+001  6.926412000841700E+001  7.097494377262500E+001 
 7.272802488380900E+001  7.452440709843900E+001  7.636515995377000E+001
    </PP_R>
    <PP_RAB type="real" size="563" columns="4">
 2.064987036521254E-006  2.115992216323326E-006  2.168257224066514E-006  2.221813177500956E-006 
 2.276691962985228E-006  2.332926254470971E-006  2.390549532956409E-006  2.449596106420320E-006 
 2.510101130249044E-006  2.572100628166257E-006  2.635631513681772E-006  2.700731612069880E-006 
 2.767439682888007E-006  2.835795443055345E-006  2.905839590498786E-006  2.977613828383957E-006 
 3.051160889945037E-006  3.126524563926759E-006  3.203749720655694E-006  3.282882338755926E-006 
 3.363969532523287E-006  3.447059579976445E-006  3.532201951601921E-006  3.619447339806457E-006 
 3.708847689099684E-006  3.800456227020481E-006  3.894327495828045E-006  3.990517384974962E-006 
 4.089083164383774E-006  4.190083518544116E-006  4.293578581452129E-006  4.399629972413884E-006 
 4.508300832732557E-006  4.619655863301094E-006  4.733761363124513E-006  4.850685268793785E-006 
 4.970497194933053E-006  5.093268475647951E-006  5.219072206996297E-006  5.347983290509198E-006 
 5.480078477784763E-006  5.615436416185929E-006  5.754137695665784E-006  5.896264896748737E-006 
 6.041902639698476E-006  6.191137634898860E-006  6.344058734480904E-006  6.500756985222714E-006 
 6.661325682757736E-006  6.825860427121829E-006  6.994459179671616E-006  7.167222321409488E-006 
 7.344252712748436E-006  7.525655754753332E-006  7.711539451895729E-006  7.902014476357562E-006 
 8.097194233923540E-006  8.297194931501479E-006  8.502135646309409E-006  8.712138396773343E-006 
 8.927328215173794E-006  9.147833222088369E-006  9.373784702674104E-006  9.605317184830073E-006 
 9.842568519295368E-006  1.008567996172204E-005  1.033479625677662E-005  1.059006572431880E-005 
 1.085164034770953E-005  1.111967586429798E-005  1.139433185814623E-005  1.167577185504244E-005 
 1.196416341986202E-005  1.225967825633263E-005  1.256249230926390E-005  1.287278586930268E-005 
 1.319074368027454E-005  1.351655504917743E-005  1.385041395889188E-005  1.419251918367661E-005 
 1.454307440751337E-005  1.490228834537901E-005  1.527037486750994E-005  1.564755312673734E-005 
 1.603404768896777E-005  1.643008866688527E-005  1.683591185695742E-005  1.725175887982427E-005 
 1.767787732415595E-005  1.811452089406257E-005  1.856194956014591E-005  1.902042971428156E-005 
 1.949023432822430E-005  1.997164311613130E-005  2.046494270109972E-005  2.097042678581700E-005 
 2.148839632742661E-005  2.201915971671397E-005  2.256303296171682E-005  2.312033987587125E-005 
 2.369141227080528E-005  2.427659015389418E-005  2.487622193069614E-005  2.549066461238321E-005 
 2.612028402831051E-005  2.676545504380903E-005  2.742656178339104E-005  2.810399785944036E-005 
 2.879816660656844E-005  2.950948132175071E-005  3.023836551039704E-005  3.098525313850500E-005 
 3.175058889102539E-005  3.253482843663519E-005  3.333843869902041E-005  3.416189813488588E-005 
 3.500569701881666E-005  3.587033773518123E-005  3.675633507723987E-005  3.766421655364880E-005 
 3.859452270252326E-005  3.954780741327694E-005  4.052463825638396E-005  4.152559682131736E-005 
 4.255127906280300E-005  4.360229565565487E-005  4.467927235834810E-005  4.578285038560031E-005 
 4.691368679012494E-005  4.807245485383955E-005  4.925984448872900E-005  5.047656264760065E-005 
 5.172333374499688E-005  5.300090008849973E-005  5.431002232068374E-005  5.565147987200692E-005 
 5.702607142484549E-005  5.843461538903792E-005  5.987795038914817E-005  6.135693576375817E-005 
 6.287245207712365E-005  6.442540164343016E-005  6.601670906402242E-005  6.764732177790243E-005 
 6.931821062581811E-005  7.103037042827484E-005  7.278482057785232E-005  7.458260564612745E-005 
 7.642479600558596E-005  7.831248846692298E-005  8.024680693205728E-005  8.222890306327864E-005 
 8.425995696894076E-005  8.634117790607310E-005  8.847380500035322E-005  9.065910798386175E-005 
 9.289838795106410E-005  9.519297813345559E-005  9.754424469335081E-005  9.995358753727825E-005 
 1.024224411494487E-004  1.049522754458390E-004  1.075445966493529E-004  1.102009481865921E-004 
 1.129229116068002E-004  1.157121075234883E-004  1.185701965793190E-004  1.214988804348263E-004 
 1.244999027815671E-004  1.275750503802731E-004  1.307261541246638E-004  1.339550901315433E-004 
 1.372637808577928E-004  1.406541962449816E-004  1.441283548922306E-004  1.476883252580702E-004 
 1.513362268919440E-004  1.550742316961759E-004  1.589045652190715E-004  1.628295079799805E-004 
 1.668513968270871E-004  1.709726263287162E-004  1.751956501990354E-004  1.795229827589522E-004 
 1.839572004330982E-004  1.885009432837963E-004  1.931569165829038E-004  1.979278924225028E-004 
 2.028167113653374E-004  2.078262841360633E-004  2.129595933542221E-004  2.182196953100729E-004 
 2.236097217842307E-004  2.291328819123013E-004  2.347924640955358E-004  2.405918379586948E-004 
 2.465344563562806E-004  2.526238574282712E-004  2.588636667067482E-004  2.652575992744132E-004 
 2.718094619764764E-004  2.785231556873089E-004  2.854026776327747E-004  2.924521237703179E-004 
 2.996756912274386E-004  3.070776808007535E-004  3.146624995165447E-004  3.224346632546013E-004 
 3.303987994369895E-004  3.385596497830680E-004  3.469220731327262E-004  3.554910483390875E-004 
 3.642716772330721E-004  3.732691876607187E-004  3.824889365959516E-004  3.919364133298651E-004 
 4.016172427391134E-004  4.115371886347698E-004  4.217021571940496E-004  4.321182004767481E-004 
 4.427915200285184E-004  4.537284705732332E-004  4.649355637963823E-004  4.764194722221658E-004 
 4.881870331860399E-004  5.002452529057400E-004  5.126013106525150E-004  5.252625630256213E-004 
 5.382365483323464E-004  5.515309910761730E-004  5.651538065557425E-004  5.791131055776698E-004 
 5.934171992854500E-004  6.080746041078060E-004  6.230940468292520E-004  6.384844697859286E-004 
 6.542550361896569E-004  6.704151355835345E-004  6.869743894324617E-004  7.039426568514293E-004 
 7.213300404756686E-004  7.391468924754181E-004  7.574038207195546E-004  7.761116950913332E-004 
 7.952816539600914E-004  8.149251108128939E-004  8.350537610499748E-004  8.556795889479038E-004 
 8.768148747949185E-004  8.984722022023501E-004  9.206644655967558E-004  9.434048778970003E-004 
 9.667069783810495E-004  9.905846407470566E-004  1.015052081373507E-003  1.040123867783439E-003 
 1.065814927317703E-003  1.092140556022447E-003  1.119116427756181E-003  1.146758603521760E-003 
 1.175083541028765E-003  1.204108104492165E-003  1.233849574673134E-003  1.264325659167556E-003 
 1.295554502948998E-003  1.327554699171834E-003  1.360345300241371E-003  1.393945829157341E-003 
 1.428376291137532E-003  1.463657185528628E-003  1.499809518011172E-003  1.536854813106046E-003 
 1.574815126989760E-003  1.613713060626415E-003  1.653571773223880E-003  1.694414996022508E-003 
 1.736267046424280E-003  1.779152842470967E-003  1.823097917679992E-003  1.868128436246685E-003 
 1.914271208621970E-003  1.961553707474949E-003  2.010004084049579E-003  2.059651184925594E-003 
 2.110524569193266E-003  2.162654526052333E-003  2.216072092845814E-003  2.270809073539114E-003 
 2.326898057655533E-003  2.384372439679614E-003  2.443266438939810E-003  2.503615119981558E-003 
 2.565454413445164E-003  2.628821137457133E-003  2.693753019552400E-003  2.760288719135394E-003 
 2.828467850497919E-003  2.898331006405308E-003  2.969919782263526E-003  3.043276800885310E-003 
 3.118445737867260E-003  3.195471347592566E-003  3.274399489878114E-003  3.355277157277967E-003 
 3.438152503062710E-003  3.523074869888588E-003  3.610094819174724E-003  3.699264161208435E-003 
 3.790635985990099E-003  3.884264694844190E-003  3.980206032806706E-003  4.078517121817075E-003 
 4.179256494725976E-003  4.282484130145705E-003  4.388261488160384E-003  4.496651546917974E-003 
 4.607718840126817E-003  4.721529495477883E-003  4.838151274016182E-003  4.957653610484279E-003 
 5.080107654663255E-003  5.205586313733601E-003  5.334164295682861E-003  5.465918153786132E-003 
 5.600926332184572E-003  5.739269212589706E-003  5.881029162140635E-003  6.026290582445365E-003 
 6.175139959831891E-003  6.327665916839762E-003  6.483959264985569E-003  6.644113058830656E-003 
 6.808222651383988E-003  6.976385750873131E-003  7.148702478919669E-003  7.325275430148871E-003 
 7.506209733273587E-003  7.691613113685560E-003  7.881595957593470E-003  8.076271377745966E-003 
 8.275755280776346E-003  8.480166436211524E-003  8.689626547186082E-003  8.904260322901387E-003 
 9.124195552877135E-003  9.349563183033127E-003  9.580497393654226E-003  9.817135679277294E-003 
 1.005961893055549E-002  1.030809151814022E-002  1.056270137863826E-002  1.082360010269070E-002 
 1.109094302522721E-002  1.136488931795029E-002  1.164560208410358E-002  1.193324845558110E-002 
 1.222799969243397E-002  1.253003128483701E-002  1.283952305757249E-002  1.315665927709461E-002 
 1.348162876123876E-002  1.381462499164126E-002  1.415584622893493E-002  1.450549563078961E-002 
 1.486378137286998E-002  1.523091677277991E-002  1.560712041706753E-002  1.599261629136908E-002 
 1.638763391376605E-002  1.679240847143596E-002  1.720718096068042E-002  1.763219833040939E-002 
 1.806771362917050E-002  1.851398615581103E-002  1.897128161385940E-002  1.943987226972188E-002 
 1.992003711478391E-002  2.041206203151895E-002  2.091623996369747E-002  2.143287109080096E-002 
 2.196226300674358E-002  2.250473090301034E-002  2.306059775631449E-002  2.363019452089568E-002 
 2.421386032556173E-002  2.481194267560355E-002  2.542479765969036E-002  2.605279016188490E-002 
 2.669629407888414E-002  2.735569254263246E-002  2.803137814843368E-002  2.872375318870201E-002 
 2.943322989246156E-002  3.016023067080678E-002  3.090518836837500E-002  3.166854652107269E-002 
 3.245075962014322E-002  3.325229338276160E-002  3.407362502931480E-002  3.491524356754090E-002 
 3.577765008365874E-002  3.666135804072487E-002  3.756689358432998E-002  3.849479585586416E-002 
 3.944561731350226E-002  4.041992406114617E-002  4.141829618545793E-002  4.244132810123771E-002 
 4.348962890533934E-002  4.456382273930135E-002  4.566454916096217E-002  4.679246352523744E-002 
 4.794823737431082E-002  4.913255883745533E-002  5.034613304074174E-002  5.158968252684585E-002 
 5.286394768525998E-002  5.416968719308672E-002  5.550767846675649E-002  5.687871812488353E-002 
 5.828362246256814E-002  5.972322793739346E-002  6.119839166744681E-002  6.270999194163350E-002 
 6.425892874259323E-002  6.584612428253385E-002  6.747252355231177E-002  6.913909488405426E-002 
 7.084683052769225E-002  7.259674724172542E-002  7.438988689859569E-002  7.622731710499081E-002 
 7.811013183748344E-002  8.003945209386905E-002  8.201642656058815E-002  8.404223229663567E-002 
 8.611807543436228E-002  8.824519189758992E-002  9.042484813746110E-002  9.265834188645648E-002 
 9.494700293105138E-002  9.729219390344819E-002  9.969531109286532E-002  1.021577852768584E-001 
 1.046810825731960E-001  1.072667053127534E-001  1.099161929339805E-001  1.126311228994499E-001 
 1.154131116350639E-001  1.182638154924505E-001  1.211849317351155E-001  1.241781995489717E-001 
 1.272454010778312E-001  1.303883624844536E-001  1.336089550378197E-001  1.369090962272548E-001 
 1.402907509040679E-001  1.437559324513988E-001  1.473067039829463E-001  1.509451795713259E-001 
 1.546735255067390E-001  1.584939615867547E-001  1.624087624379477E-001  1.664202588701647E-001 
 1.705308392642583E-001  1.747429509940856E-001  1.790591018836377E-001  1.834818617001639E-001 
 1.880138636841594E-001  1.926578061171580E-001  1.974164539282499E-001  2.022926403402786E-001 
 2.072892685566833E-001  2.124093134900329E-001  2.176558235332365E-001  2.230319223745083E-001 
 2.285408108571597E-001  2.341857688853303E-001  2.399701573767982E-001  2.458974202640103E-001 
 2.519710865445317E-001  2.581947723821877E-001  2.645721832600080E-001  2.711071161865352E-001 
 2.778034619563515E-001  2.846652074666784E-001  2.916964380910940E-001  2.989013401119345E-001 
 3.062842032127173E-001  3.138494230320532E-001  3.216015037809492E-001  3.295450609243556E-001 
 3.376848239291794E-001  3.460256390802258E-001  3.545724723655098E-001  3.633304124329367E-001 
 3.723046736200358E-001  3.815005990584316E-001  3.909236638551983E-001  4.005794783524165E-001 
 4.104737914677129E-001  4.206124941169785E-001  4.310016227216578E-001  4.416473628028755E-001 
 4.525560526641127E-001  4.637341871649168E-001  4.751884215878934E-001  4.869255756011019E-001 
 4.989526373184646E-001  5.112767674602158E-001  5.239053036164899E-001  5.368457646158273E-001 
 5.501058550018226E-001  5.636934696203760E-001  5.776166983199899E-001  5.918838307685016E-001 
 6.065033613884737E-001  6.214839944147771E-001  6.368346490768350E-001  6.525644649090135E-001 
 6.686828071922855E-001  6.851992725299204E-001  7.021236945614026E-001  7.194661498170853E-001 
 7.372369637175623E-001  7.554467167213902E-001  7.741062506244065E-001  7.932266750148182E-001 
 8.128193738876934E-001  8.328960124227131E-001  8.534685439295503E-001  8.745492169646091E-001 
 8.961505826236389E-001  9.182855020144437E-001  9.409671539142006E-001  9.642090426158781E-001 
 9.880250059684866E-001  1.012429223615920E+000  1.037436225439243E+000  1.063060900207575E+000 
 1.089318504442712E+000  1.116224671502451E+000  1.143795420888560E+000  1.172047167784501E+000 
 1.200996732828774E+000  1.230661352129639E+000  1.261058687527263E+000  1.292206837109171E+000 
 1.324124345985774E+000  1.356830217331632E+000  1.390343923699708E+000  1.424685418615095E+000 
 1.459875148454884E+000  1.495934064621727E+000  1.532883636017869E+000  1.570745861827513E+000 
 1.609543284614659E+000  1.649299003744646E+000  1.690036689137129E+000  1.731780595358819E+000 
 1.774555576064186E+000  1.818387098792969E+000  1.863301260133145E+000
    </PP_RAB>
  </PP_MESH>
  <PP_LOCAL type="real" size="563" columns="4">
-4.273938428897800E+000 -4.273938510830400E+000 -4.273938590770400E+000 -4.273938668764800E+000 
-4.273938744859400E+000 -4.273938819099400E+000 -4.273938891528200E+000 -4.273938962188400E+000 
-4.273939031121600E+000 -4.273939098368200E+000 -4.273939163967600E+000 -4.273939227958200E+000 