<UPF version="2.0.1">
  <PP_INFO>
    Generated using FHI98PP, converted with fhi2upf.x v.5.0.2
    Author: unknown
    Generation date: unknown
    Pseudopotential type: SL
    Element:  W
    Functional: PBE

    Suggested minimum cutoff for wavefunctions:   0. Ry
    Suggested minimum cutoff for charge density:   0. Ry
    The Pseudo was generated with a Non-Relativistic Calculation
    L component and cutoff radius for Local Potential:  1   0.0000

    Valence configuration: 
    nl pn  l   occ       Rcut    Rcut US       E pseu
    6s  6  0  2.00      0.000      0.000     0.000000
    6p  6  1  0.00      0.000      0.000     0.000000
    5d  5  2  3.90      0.000      0.000     0.000000
    5f  5  3  0.00      0.000      0.000     0.000000

    Generation configuration: not available.
    Comment:
    molybdenum, fhi98PP : Trouiller-Martins-type, GGA Perdew/Burke/Ernzerhof (1996),
  </PP_INFO>
  <!--                               -->
  <!-- END OF HUMAN READABLE SECTION -->
  <!--                               -->
  <PP_HEADER generated="Generated using FHI98PP, converted with fhi2upf.x v.5.0.2"
             author="unknown"
             date="unknown"
             comment="molybdenum, fhi98PP : Trouiller-Martins-type, GGA Perdew/Burke/Ernzerhof (1996),"
             element=" W"
             pseudo_type="SL"
             relativistic="no"
             is_ultrasoft="F"
             is_paw="F"
             is_coulomb="F"
             has_so="F"
             has_wfc="F"
             has_gipaw="F"
             paw_as_gipaw="F"
             core_correction="F"
             functional="PBE"
             z_valence="5.900000000000000E+000"
             total_psenergy="0.000000000000000E+000"
             wfc_cutoff="0.000000000000000E+000"
             rho_cutoff="0.000000000000000E+000"
             l_max="3"
             l_max_rho="0"
             l_local="1"
             mesh_size="563"
             number_of_wfc="4"
             number_of_proj="3"/>
  <PP_MESH dx="2.439988682353512E-002" mesh="563" xmin="-5.075173815233827E+000" rmax="7.631349205123099E+001"
zmesh="7.390000000000001E+001">
    <PP_R type="real" size="563" columns="4">
 8.457374830852500E-005  8.666271989174601E-005  8.880328907307199E-005  9.099673031317701E-005 
 9.324434955191200E-005  9.554748498584400E-005  9.790750786499500E-005  1.003258233092600E-004 
 1.028038711450000E-004  1.053431267622800E-004  1.079451019933100E-004  1.106113460125400E-004 
 1.133434462590500E-004  1.161430293816500E-004  1.190117622073800E-004  1.219513527339000E-004 
 1.249635511464300E-004  1.280501508597400E-004  1.312129895859800E-004  1.344539504287500E-004 
 1.377749630043400E-004  1.411780045905500E-004  1.446651013039400E-004  1.482383293061500E-004 
 1.518998160400100E-004  1.556517414962000E-004  1.594963395111500E-004  1.634358990970800E-004 
 1.674727658047700E-004  1.716093431201500E-004  1.758480938952200E-004  1.801915418144300E-004 
 1.846422728972500E-004  1.892029370378100E-004  1.938762495826400E-004  1.986649929473400E-004 
 2.035720182731400E-004  2.086002471244800E-004  2.137526732284600E-004  2.190323642572000E-004 
 2.244424636543500E-004  2.299861925066100E-004  2.356668514615300E-004  2.414878226926300E-004 
 2.474525719131400E-004  2.535646504393900E-004  2.598276973052400E-004  2.662454414286800E-004 
 2.728217038319700E-004  2.795603999166200E-004  2.864655417945600E-004  2.935412406768900E-004 
 3.007917093216100E-004  3.082212645418500E-004  3.158343297760300E-004  3.236354377215000E-004 
 3.316292330332200E-004  3.398204750891400E-004  3.482140408238400E-004  3.568149276321900E-004 
 3.656282563447100E-004  3.746592742764200E-004  3.839133583510500E-004  3.933960183023200E-004 
 4.031128999543900E-004  4.130697885832600E-004  4.232726123612700E-004  4.337274458865900E-004 
 4.444405137999900E-004  4.554181944908500E-004  4.666670238947700E-004  4.781936993849800E-004 
 4.900050837597800E-004  5.021082093286500E-004  5.145102820990700E-004  5.272186860669201E-004 
 5.402409876127700E-004  5.535849400068000E-004  5.672584880249700E-004  5.812697726791900E-004 
 5.956271360643600E-004  6.103391263251500E-004  6.254145027453900E-004  6.408622409632000E-004 
 6.566915383149900E-004  6.729118193113700E-004  6.895327412483600E-004  7.065641999571900E-004 
 7.240163356961300E-004  7.418995391878300E-004  7.602244578057700E-004  7.790020019135700E-004 
 7.982433513608400E-004  8.179599621394500E-004  8.381635732042900E-004  8.588662134624400E-004 
 8.800802089349600E-004  9.018181900956600E-004  9.240930993910200E-004  9.469181989459800E-004 
 9.703070784599400E-004  9.942736632979001E-004  1.018832222781400E-003  1.043997378684100E-003 
 1.069784113937600E-003  1.096207781551800E-003  1.123284113756100E-003  1.151029231365900E-003 
 1.179459653380700E-003  1.208592306819200E-003  1.238444536797600E-003  1.269034116856500E-003 
 1.300379259542800E-003  1.332498627253600E-003  1.365411343346700E-003  1.399137003527400E-003 
 1.433695687514500E-003  1.469107970996100E-003  1.505394937879700E-003  1.542578192845400E-003 
 1.580679874208600E-003  1.619722667101600E-003  1.659729816979000E-003  1.700725143458400E-003 
 1.742733054501800E-003  1.785778560948000E-003  1.829887291403400E-003  1.875085507501100E-003 
 1.921400119536300E-003  1.968858702488900E-003  2.017489512440400E-003  2.067321503397600E-003 
 2.118384344531600E-003  2.170708437841500E-003  2.224324936256200E-003  2.279265762181700E-003 
 2.335563626507600E-003  2.393252048082300E-003  2.452365373670000E-003  2.512938798399600E-003 
 2.575008386720100E-003  2.638611093872100E-003  2.703784787890700E-003  2.770568272151600E-003 
 2.839001308473800E-003  2.909124640793100E-003  2.980980019420700E-003  3.054610225900300E-003 
 3.130059098480100E-003  3.207371558212500E-003  3.286593635700400E-003  3.367772498502200E-003 
 3.450956479215200E-003  3.536195104251800E-003  3.623539123326800E-003  3.713040539673000E-003 
 3.804752641002900E-003  3.898730031235700E-003  3.995028663007200E-003  4.093705870983500E-003 
 4.194820405996800E-003  4.298432470024900E-003  4.404603752034500E-003  4.513397464709800E-003 
 4.624878382088100E-003  4.739112878125700E-003  4.856168966215400E-003  4.976116339680900E-003 
 5.099026413271000E-003  5.224972365678800E-003  5.354029183111100E-003  5.486273703933900E-003 
 5.621784664421100E-003  5.760642745632300E-003  5.902930621449400E-003  6.048733007799200E-003 
 6.198136713091800E-003  6.351230689905200E-003  6.508106087945900E-003  6.668856308318100E-003 
 6.833577059133600E-003  7.002366412494200E-003  7.175324862882800E-003  7.352555386996000E-003 
 7.534163505054800E-003  7.720257343629700E-003  7.910947700017301E-003  8.106348108207701E-003 
 8.306574906480501E-003  8.511747306670500E-003  8.721987465145300E-003  8.937420555534399E-003 
 9.158174843256100E-003  9.384381761884501E-003  9.616175991403100E-003  9.853695538390699E-003 
 1.009708181818900E-002  1.034647973909800E-002  1.060203778865400E-002  1.086390812203400E-002 
 1.113224665264800E-002  1.140721314496800E-002  1.168897130964900E-002  1.197768890099700E-002 
 1.227353781685200E-002  1.257669420092800E-002  1.288733854769100E-002  1.320565580981900E-002 
 1.353183550832200E-002  1.386607184537700E-002  1.420856381995800E-002  1.455951534631100E-002 
 1.491913537536500E-002  1.528763801913600E-002  1.566524267820900E-002  1.605217417236100E-002 
 1.644866287441800E-002  1.685494484741600E-002  1.727126198514700E-002  1.769786215618100E-002 
 1.813499935143800E-002  1.858293383541900E-002  1.904193230115400E-002  1.951226802899200E-002 
 1.999422104930800E-002  2.048807830922600E-002  2.099413384346400E-002  2.151268894939800E-002 
 2.204405236644800E-002  2.258854045989900E-002  2.314647740925800E-002  2.371819540126700E-002 
 2.430403482767800E-002  2.490434448792200E-002  2.551948179677400E-002  2.614981299715400E-002 
 2.679571337818400E-002  2.745756749862500E-002  2.813576941584100E-002  2.883072292041200E-002 
 2.954284177654600E-002  3.027254996842700E-002  3.102028195264700E-002  3.178648291687800E-002 
 3.257160904492500E-002  3.337612778833400E-002  3.420051814470600E-002  3.504527094288000E-002 
 3.591088913516900E-002  3.679788809680800E-002  3.770679593279900E-002  3.863815379233900E-002 
 3.959251619101000E-002  4.057045134092800E-002  4.157254148904900E-002  4.259938326382900E-002 
 4.365158803044500E-002  4.472978225479700E-002  4.583460787649100E-002  4.696672269104000E-002 
 4.812680074150900E-002  4.931553271982400E-002  5.053362637800300E-002  5.178180694954000E-002 
 5.306081758119400E-002  5.437141977544900E-002  5.571439384390300E-002  5.709053937184700E-002 
 5.850067569433200E-002  5.994564238398200E-002  6.142629975086600E-002  6.294352935471299E-002 
 6.449823452977400E-002  6.609134092265900E-002  6.772379704344900E-002  6.939657483042200E-002 
 7.111067022873400E-002  7.286710378338300E-002  7.466692124683300E-002  7.651119420163000E-002 
 7.840102069841000E-002  8.033752590966101E-002  8.232186279962900E-002  8.435521281078000E-002 
 8.643878656720699E-002  8.857382459541700E-002  9.076159806292300E-002  9.300340953507800E-002 
 9.530059375059401E-002  9.765451841623400E-002  1.000665850211100E-001  1.025382296711400E-001 
 1.050709239440100E-001  1.076661757654300E-001  1.103255303068400E-001  1.130505709054200E-001 
 1.158429200067800E-001  1.187042401309500E-001  1.216362348621800E-001  1.246406498632800E-001 
 1.277192739149000E-001  1.308739399806000E-001  1.341065262981200E-001  1.374189574976800E-001 
 1.408132057478700E-001  1.442912919298500E-001  1.478552868405100E-001  1.515073124254700E-001 
 1.552495430423800E-001  1.590842067555300E-001  1.630135866623900E-001  1.670400222529500E-001 
 1.711659108026000E-001  1.753937087994300E-001  1.797259334067700E-001  1.841651639619200E-001 
 1.887140435117800E-001  1.933752803865200E-001  1.981516498120700E-001  2.030459955624200E-001 
 2.080612316528200E-001  2.132003440746400E-001  2.184663925732800E-001  2.238625124698400E-001 
 2.293919165278500E-001  2.350578968660900E-001  2.408638269186800E-001  2.468131634435700E-001 
 2.529094485806300E-001  2.591563119605700E-001  2.655574728659900E-001  2.721167424457900E-001 
 2.788380259842000E-001  2.857253252260100E-001  2.927827407590900E-001  3.000144744558400E-001 
 3.074248319749000E-001  3.150182253246800E-001  3.227991754902000E-001  3.307723151248000E-001 
 3.389423913083900E-001  3.473142683737000E-001  3.558929308025300E-001  3.646834861933600E-001 
 3.736911683023300E-001  3.829213401594000E-001  3.923794972613400E-001  4.020712708436900E-001 
 4.120024312335300E-001  4.221788912850000E-001  4.326067098997400E-001  4.432920956342600E-001 
 4.542414103964300E-001  4.654611732332200E-001  4.769580642120800E-001  4.887389283981200E-001 
 5.008107799295500E-001  5.131808061938100E-001  5.258563721068000E-001  5.388450244978400E-001 
 5.521544966029300E-001  5.657927126690300E-001  5.797677926719500E-001  5.940880571509500E-001 
 6.087620321625800E-001  6.237984543569900E-001  6.392062761796100E-001  6.549946712012500E-001 
 6.711730395799200E-001  6.877510136575400E-001  7.047384636948800E-001  7.221455037481500E-001 
 7.399824976907300E-001  7.582600653836900E-001  7.769890889986600E-001  7.961807194969300E-001 
 8.158463832685000E-001  8.359977889352400E-001  8.566469343219399E-001  8.778061135996900E-001 
 8.994879246056000E-001  9.217052763433600E-001  9.444713966690400E-001  9.677998401667700E-001 
 9.917044962188800E-001  1.016199597275500E+000  1.041299727328200E+000  1.067019830593200E+000 
 1.093375220408900E+000  1.120381588353000E+000  1.148055013585300E+000  1.176411972420800E+000 
 1.205469348139600E+000  1.235244441038700E+000  1.265754978732300E+000  1.297019126707000E+000 
 1.329055499136700E+000  1.361883169965400E+000  1.395521684263500E+000  1.429991069864800E+000 
 1.465311849290500E+000  1.501505051967900E+000  1.538592226751500E+000  1.576595454752300E+000 
 1.615537362484700E+000  1.655441135338100E+000  1.696330531380900E+000  1.738229895506000E+000 
 1.781164173925000E+000  1.825158929021000E+000  1.870240354567800E+000  1.916435291325600E+000 
 1.963771243021400E+000  2.012276392724000E+000  2.061979619624300E+000  2.112910516229000E+000 
 2.165099405979800E+000  2.218577361307500E+000  2.273376222131800E+000  2.329528614818500E+000 
 2.387067971604500E+000  2.446028550503100E+000  2.506445455700600E+000  2.568354658456400E+000 
 2.631793018520200E+000  2.696798306077700E+000  2.763409224237800E+000  2.831665432076500E+000 
 2.901607568248800E+000  2.973277275184500E+000  3.046717223881600E+000  3.121971139311500E+000 
 3.199083826452400E+000  3.278101196965800E+000  3.359070296530900E+000  3.442039332855200E+000 
 3.527057704376700E+000  3.614176029674800E+000  3.703446177607800E+000  3.794921298194700E+000 
 3.888655854260100E+000  3.984705653860300E+000  4.083127883510700E+000  4.183981142233400E+000 
 4.287325476446600E+000  4.393222415714800E+000  4.501735009382900E+000  4.612927864114700E+000 
 4.726867182358300E+000  4.843620801762600E+000  4.963258235566100E+000  5.085850713984600E+000 
 5.211471226620000E+000  5.340194565917500E+000  5.472097371695700E+000  5.607258176776600E+000 
 5.745757453743000E+000  5.887677662850400E+000  6.033103301122800E+000  6.182120952660500E+000 
 6.334819340191300E+000  6.491289377894000E+000  6.651624225528000E+000  6.815919343898500E+000 
 6.984272551692800E+000  7.156784083719600E+000  7.333556650587500E+000  7.514695499857000E+000 
 7.700308478703500E+000  7.890506098127400E+000  8.085401598751201E+000  8.285111018240300E+000 
 8.489753260390900E+000  8.699450165922499E+000  8.914326585020801E+000  9.134510451670799E+000 
 9.360132859827100E+000  9.591328141464800E+000  9.828233946558999E+000  1.007099132503900E+001 
 1.031974481076700E+001  1.057464250759300E+001  1.083583617753100E+001  1.110348133111600E+001 
 1.137773731999500E+001  1.165876743179800E+001  1.194673898736400E+001  1.224182344035200E+001 
 1.254419647932800E+001  1.285403813236800E+001  1.317153287423700E+001  1.349686973623100E+001 
 1.383024241871600E+001  1.417184940645800E+001  1.452189408679800E+001  1.488058487074200E+001 
 1.524813531704900E+001  1.562476425938000E+001  1.601069593658700E+001  1.640616012622000E+001 
 1.681139228133800E+001  1.722663367068700E+001  1.765213152235300E+001  1.808813917095500E+001 
 1.853491620847800E+001  1.899272863882700E+001  1.946184903620600E+001  1.994255670740000E+001 
 2.043513785807300E+001  2.093988576316800E+001  2.145710094151800E+001  2.198709133477300E+001 
 2.253017249074200E+001  2.308666775126400E+001  2.365690844472000E+001  2.424123408330400E+001 
 2.483999256516200E+001  2.545354038152200E+001  2.608224282894500E+001  2.672647422682000E+001 
 2.738661814022300E+001  2.806306760828600E+001  2.875622537821100E+001  2.946650414505300E+001 
 3.019432679743500E+001  3.094012666933200E+001  3.170434779806400E+001  3.248744518867700E+001 
 3.328988508483700E+001  3.411214524643200E+001  3.495471523401900E+001  3.581809670030000E+001 
 3.670280368879700E+001  3.760936293991000E+001  3.853831420452600E+001  3.949021056537800E+001 
 4.046561876634300E+001  4.146511954987100E+001  4.248930800275300E+001  4.353879391042100E+001 
 4.461420212000900E+001  4.571617291237300E+001  4.684536238330800E+001  4.800244283417600E+001 
 4.918810317218000E+001  5.040304932053300E+001  5.164800463875000E+001  5.292371035332700E+001 
 5.423092599905500E+001  5.557042987123100E+001  5.694301948905100E+001  5.834951207043000E+001 
 5.979074501857000E+001  6.126757642052800E+001  6.278088555811500E+001  6.433157343140100E+001 
 6.592056329515700E+001  6.754880120854700E+001  6.921725659839800E+001  7.092692283637800E+001 
 7.267881783043700E+001  7.447398463084900E+001  7.631349205123099E+001
    </PP_R>
    <PP_RAB type="real" size="563" columns="4">
 2.063589886970155E-006  2.114560557178328E-006  2.166790202940630E-006  2.220309920953267E-006 
 2.275151576000800E-006  2.331347819928015E-006  2.388932111080253E-006  2.447938734223926E-006 
 2.508402820959288E-006  2.570360370636946E-006  2.633848271791719E-006  2.698904324104859E-006 
 2.765567260910256E-006  2.833876772254774E-006  2.903873528529546E-006  2.975599204684171E-006 
 3.049096505039934E-006  3.124409188714255E-006  3.201582095675604E-006  3.280661173438702E-006 
 3.361693504422634E-006  3.444727333981942E-006  3.529812099131379E-006  3.616998457979990E-006 
 3.706338319892049E-006  3.797884876393425E-006  3.891692632840193E-006  3.987817440871458E-006 
 4.086316531660791E-006  4.187248549992865E-006  4.290673589177746E-006  4.396653226830388E-006 
 4.505250561533186E-006  4.616530250403006E-006  4.730558547587864E-006  4.847403343713499E-006 
 4.967134206303240E-006  5.089822421198770E-006  5.215541035002510E-006  5.344364898566999E-006 
 5.476370711561535E-006  5.611637068137045E-006  5.750244503720194E-006  5.892275542962089E-006 
 6.037814748873302E-006  6.186948773170362E-006  6.339766407867597E-006  6.496358638141941E-006 
 6.656818696504086E-006  6.821242118307745E-006  6.989726798629934E-006  7.162373050556200E-006 
 7.339283664904958E-006  7.520563971428018E-006  7.706321901522201E-006  7.896668052489850E-006 
 8.091715753386323E-006  8.291581132494952E-006  8.496383186467535E-006  8.706243851173309E-006 
 8.921288074297411E-006  9.141643889732451E-006  9.367442493808901E-006  9.598818323405959E-006 
 9.835909135994151E-006  1.007885609165312E-005  1.032780383711704E-005  1.058290059189375E-005 
 1.084429823651356E-005  1.111215240295545E-005  1.138662256730835E-005  1.166787214472109E-005 
 1.195606858669548E-005  1.225138348078694E-005  1.255399265276244E-005  1.286407627128574E-005 
 1.318181895518643E-005  1.350740988337940E-005  1.384104290749892E-005  1.418291666731422E-005 
 1.453323470899674E-005  1.489220560630897E-005  1.526004308478501E-005  1.563696614897917E-005 
 1.602319921285893E-005  1.641897223341654E-005  1.682452084758191E-005  1.724008651251707E-005 
 1.766591664937618E-005  1.810226479061591E-005  1.854939073094414E-005  1.900756068199840E-005 
 1.947704743084388E-005  1.995813050238565E-005  2.045109632579447E-005  2.095623840504169E-005 
 2.147385749364617E-005  2.200426177373938E-005  2.254776703955068E-005  2.310469688542762E-005 
 2.367538289849755E-005  2.426016485609043E-005  2.485939092803688E-005  2.547341788395938E-005 
 2.610261130569324E-005  2.674734580494243E-005  2.740800524632379E-005  2.808498297590858E-005 
 2.877868205541504E-005  2.948951550218371E-005  3.021790653508682E-005  3.096428882650344E-005 
 3.172910676051672E-005  3.251281569750375E-005  3.331588224523053E-005  3.413878453668862E-005 
 3.498201251474418E-005  3.584606822385816E-005  3.673146610898737E-005  3.763873332188109E-005 
 3.856841003492957E-005  3.952104976279349E-005  4.049721969193426E-005  4.149750101832549E-005 
 4.252248929347759E-005  4.357279477902662E-005  4.464904281006819E-005  4.575187416747775E-005 
 4.688194545941258E-005  4.803992951226136E-005  4.922651577121481E-005  5.044241071076192E-005 
 5.168833825531967E-005  5.296504021022532E-005  5.427327670341825E-005  5.561382663799200E-005 
 5.698748815595069E-005  5.839507911340176E-005  5.983743756750442E-005  6.131542227542058E-005 
 6.282991320562420E-005  6.438181206180345E-005  6.597204281972899E-005  6.760155227737629E-005 
 6.927131061862885E-005  7.098231199090890E-005  7.273557509708461E-005  7.453214380198037E-005 
 7.637308775389082E-005  7.825950302141049E-005  8.019251274604058E-005  8.217326781086778E-005 
 8.420294752579611E-005  8.628276032968291E-005  8.841394450982560E-005  9.059776893921898E-005 
 9.283553383201711E-005  9.512857151766863E-005  9.747824723415450E-005  9.988595994083867E-005 
 1.023531431513776E-004  1.048812657872161E-004  1.074718330521599E-004  1.101263873285495E-004 
 1.128465090955639E-004  1.156338178702249E-004  1.184899731716193E-004  1.214166755089578E-004 
 1.244156673940286E-004  1.274887343786613E-004  1.306377061178150E-004  1.338644574589240E-004 
 1.371709095581602E-004  1.405590310242467E-004  1.440308390905452E-004  1.475884008160817E-004 
 1.512338343162379E-004  1.549693100238498E-004  1.587970519814399E-004  1.627193391653799E-004 
 1.667385068427658E-004  1.708569479617821E-004  1.750771145764380E-004  1.794015193064759E-004 
 1.838327368333458E-004  1.883734054331306E-004  1.930262285473276E-004  1.977939763924459E-004 
 2.026794876093410E-004  2.076856709532901E-004  2.128155070258373E-004  2.180720500493757E-004 
 2.234584296855953E-004  2.289778528988289E-004  2.346336058654313E-004  2.404290559303060E-004 
 2.463676536117858E-004  2.524529346559904E-004  2.586885221420002E-004  2.650781286389136E-004 
 2.716255584162889E-004  2.783347097091613E-004  2.852095770389847E-004  2.922542535918396E-004 
 2.994729336555671E-004  3.068699151168536E-004  3.144496020202419E-004  3.222165071901426E-004 
 3.301752549177506E-004  3.383305837142056E-004  3.466873491319510E-004  3.552505266555111E-004 
 3.640252146639052E-004  3.730166374660910E-004  3.822301484115118E-004  3.916712330772819E-004 
 4.013455125342831E-004  4.112587466938768E-004  4.214168377372114E-004  4.318258336293417E-004 
 4.424919317199700E-004  4.534214824334651E-004  4.646209930495752E-004  4.760971315778875E-004 
 4.878567307278589E-004  4.999067919768392E-004  5.122544897386700E-004  5.249071756352259E-004 
 5.378723828734128E-004  5.511578307303796E-004  5.647714291494077E-004  5.787212834494060E-004 
 5.930156991505992E-004  6.076631869196275E-004  6.226724676365504E-004  6.380524775871653E-004 
 6.538123737835755E-004  6.699615394160263E-004  6.865095894396013E-004  7.034663762987527E-004 
 7.208419957933277E-004  7.386467930894305E-004  7.568913688787358E-004  7.755865856900558E-004 
 7.947435743566030E-004  8.143737406431952E-004  8.344887720370858E-004  8.551006447063959E-004 
 8.762216306306406E-004  8.978643049072254E-004  9.200415532384300E-004  9.427665796034160E-004 
 9.660529141196258E-004  9.899144210983820E-004  1.014365307299514E-003  1.039420130389824E-003 
 1.065093807610438E-003  1.091401624658416E-003  1.118359244787492E-003  1.145982718133735E-003 
 1.174288491271646E-003  1.203293417006049E-003  1.233014764406082E-003  1.263470229086920E-003 
 1.294677943745376E-003  1.326656488955875E-003  1.359424904233095E-003  1.393002699367643E-003 
 1.427409866042033E-003  1.462666889733271E-003  1.498794761909674E-003  1.535814992528858E-003 
 1.573749622844311E-003  1.612621238528555E-003  1.652452983120218E-003  1.693268571803283E-003 
 1.735092305526838E-003  1.777949085473333E-003  1.821864427884535E-003  1.866864479253289E-003 
 1.912976031890838E-003  1.960226539878549E-003  2.008644135413534E-003  2.058257645558252E-003 
 2.109096609403558E-003  2.161191295655826E-003  2.214572720658506E-003  2.269272666858791E-003 
 2.325323701730192E-003  2.382759197162936E-003  2.441613349332739E-003  2.501921199061467E-003 
 2.563718652678111E-003  2.627042503399332E-003  2.691930453233390E-003  2.758421135428281E-003 
 2.826554137473264E-003  2.896370024668916E-003  2.967910364278129E-003  3.041217750275900E-003 
 3.116335828707642E-003  3.193309323676769E-003  3.272184063971565E-003  3.353007010351575E-003 
 3.435826283507193E-003  3.520691192710006E-003  3.607652265169766E-003  3.696761276119444E-003 
 3.788071279639617E-003  3.881636640246793E-003  3.977513065260850E-003  4.075757637972769E-003 
 4.176428851630747E-003  4.279586644266168E-003  4.385292434379399E-003  4.493609157508637E-003 
 4.604601303699114E-003  4.718334955900459E-003  4.834877829311273E-003  4.954299311695063E-003 
 5.076670504694131E-003  5.202064266159963E-003  5.330555253534025E-003  5.462219968296316E-003 
 5.597136801513356E-003  5.735386080510787E-003  5.877050116699344E-003  6.022213254581784E-003 
 6.170961921970048E-003  6.323384681442669E-003  6.479572283074156E-003  6.639617718466331E-003 
 6.803616276112425E-003  6.971665598132409E-003  7.143865738406219E-003  7.320319222144865E-003 
 7.501131106931861E-003  7.686409045273077E-003  7.876263348691332E-003  8.070807053403814E-003 
 8.270155987623070E-003  8.474428840517183E-003  8.683747232877948E-003  8.898235789530216E-003 
 9.118022213531467E-003  9.343237362205754E-003  9.574015325052306E-003  9.810493503580972E-003 
 1.005281269311944E-002  1.030111716663954E-002  1.055555476065555E-002  1.081627696324365E-002 
 1.108343900423586E-002  1.135719994764044E-002  1.163772278634715E-002  1.192517453916996E-002 
 1.221972635028738E-002  1.252155359113948E-002  1.283083596484069E-002  1.314775761317231E-002 
 1.347250722621750E-002  1.380527815470526E-002  1.414626852512635E-002  1.449568135769705E-002 
 1.485372468723220E-002  1.522061168700669E-002  1.559656079567582E-002  1.598179584732910E-002 
 1.637654620475811E-002  1.678104689601553E-002  1.719553875434709E-002  1.762026856157962E-002 
 1.805548919505065E-002  1.850145977816837E-002  1.895844583468896E-002  1.942671944680585E-002 
 1.990655941714186E-002  2.039825143474546E-002  2.090208824518366E-002  2.141836982483965E-002 
 2.194740355951313E-002  2.248950442743314E-002  2.304499518679072E-002  2.361420656790457E-002 
 2.419747747013158E-002  2.479515516364417E-002  2.540759549618606E-002  2.603516310494170E-002 
 2.667823163363493E-002  2.733718395498571E-002  2.801241239867340E-002  2.870431898491924E-002 
 2.941331566384690E-002  3.013982456074518E-002  3.088427822739422E-002  3.164711989961116E-002 
 3.242880376113246E-002  3.322979521403301E-002  3.405057115581851E-002  3.489162026336702E-002 
 3.575344328387315E-002  3.663655333298298E-002  3.754147620030748E-002  3.846875066245601E-002 
 3.941892880381911E-002  4.039257634527413E-002  4.139027298100115E-002  4.241261272363168E-002 
 4.346020425790542E-002  4.453367130307697E-002  4.563365298426252E-002  4.676080421297320E-002 
 4.791579607703505E-002  4.909931624013711E-002  5.031206935126892E-002  5.155477746424476E-002 
 5.282818046761024E-002  5.413303652516019E-002  5.547012252733176E-002  5.684023455375794E-002 
 5.824418834723535E-002  5.968281979941131E-002  6.115698544845856E-002  6.266756298903536E-002 
 6.421545179486275E-002  6.580157345419710E-002  6.742687231851531E-002  6.909231606478328E-002 
 7.079889627158367E-002  7.254762900949069E-002  7.433955544602616E-002  7.617574246554359E-002 
 7.805728330444024E-002  7.998529820206053E-002  8.196093506765252E-002  8.398537016382322E-002 
 8.605980880686907E-002  8.818548608439863E-002  9.036366759068407E-002  9.259565018017366E-002 
 9.488276273962372E-002  9.722636697929184E-002  9.962785824368159E-002  1.020886663423002E-001 
 1.046102564009558E-001  1.071941297340587E-001  1.098418247384886E-001  1.125549178095303E-001 
 1.153350242794249E-001  1.181837993791279E-001  1.211029392237915E-001  1.240941818226195E-001 
 1.271593081136377E-001  1.303001430240443E-001  1.335185565567391E-001  1.368164649036909E-001 
 1.401958315868125E-001  1.436586686270055E-001  1.472070377420925E-001  1.508430515743213E-001 
 1.545688749482092E-001  1.583867261594293E-001  1.622988782955677E-001  1.663076605894672E-001 
 1.704154598060272E-001  1.746247216632358E-001  1.789379522883183E-001  1.833577197098395E-001 
 1.878866553866733E-001  1.925274557747223E-001  1.972828839323592E-001  2.021557711654872E-001 
 2.071490187132763E-001  2.122655994754928E-001  2.175085597825379E-001  2.228810212091662E-001 
 2.283861824330334E-001  2.340273211391286E-001  2.398077959712655E-001  2.457310485317556E-001 
 2.518006054304787E-001  2.580200803846128E-001  2.643931763701238E-001  2.709236878264655E-001 
 2.776155029157898E-001  2.844726058377884E-001  2.914990792019962E-001  2.986991064582882E-001 
 3.060769743877910E-001  3.136370756551840E-001  3.213839114238551E-001  3.293220940360327E-001 
 3.374563497587251E-001  3.457915215977586E-001  3.543325721812351E-001  3.630845867141138E-001 
 3.720527760059444E-001  3.812424795732886E-001  3.906591688187564E-001  4.003084502885627E-001 
 4.101960690106992E-001  4.203279119152622E-001  4.307100113395699E-001  4.413485486196544E-001 
 4.522498577705699E-001  4.634204292574930E-001  4.748669138601525E-001  4.865961266324912E-001 
 4.986150509603191E-001  5.109308427190535E-001  5.235508345342081E-001  5.364825401471910E-001 
 5.497336588888292E-001  5.633120802633996E-001  5.772258886459002E-001  5.914833680954398E-001 
 6.060930072874067E-001  6.210635045674178E-001  6.364037731302185E-001  6.521229463265363E-001 
 6.682303831008151E-001  6.847356735633928E-001  7.016486447004168E-001  7.189793662245217E-001 
 7.367381565702477E-001  7.549355890375414E-001  7.735824980867565E-001  7.926899857895194E-001 
 8.122694284385128E-001  8.323324833209323E-001  8.528910956589625E-001  8.739575057217569E-001 
 8.955442561130741E-001  9.176641992390601E-001  9.403305049602704E-001  9.635566684327941E-001 
 9.873565181430881E-001  1.011744224141206E+000  1.036734306477498E+000  1.062341643847492E+000 
 1.088581482450540E+000  1.115469445067063E+000  1.143021540360205E+000  1.171254172407109E+000 
 1.200184150465561E+000  1.229828698982064E+000  1.260205467846917E+000  1.291332542902733E+000 
 1.323228456712450E+000  1.355912199593232E+000  1.389403230923199E+000  1.423721490726989E+000 
 1.458887411547954E+000  1.494921930613172E+000  1.531846502299317E+000  1.569683110906123E+000 
 1.608454283745514E+000  1.648183104554019E+000  1.688893227236501E+000  1.730608889949232E+000 
 1.773354929530989E+000  1.817156796290410E+000  1.862040569158783E+000
    </PP_RAB>
  </PP_MESH>
  <PP_LOCAL type="real" size="563" columns="4">
-4.563774182919800E+000 -4.563774265309600E+000 -4.563774345696400E+000 -4.563774424127600E+000 
-4.563774500649400E+000 -4.563774575307000E+000 -4.563774648144200E+000 -4.563774719203800E+000 
-4.563774788527800E+000 -4.563774856156600E+000 -4.563774922130200E+000 -4.563774986487000E+000 