<UPF version="2.0.1">
  <PP_INFO>
    Generated using FHI98PP, converted with fhi2upf.x v.5.0.2
    Author: unknown
    Generation date: unknown
    Pseudopotential type: SL
    Element:  W
    Functional: PBE

    Suggested minimum cutoff for wavefunctions:   0. Ry
    Suggested minimum cutoff for charge density:   0. Ry
    The Pseudo was generated with a Scalar-Relativistic Calculation
    L component and cutoff radius for Local Potential:  3   0.0000

    Valence configuration: 
    nl pn  l   occ       Rcut    Rcut US       E pseu
    6s  6  0  2.00      0.000      0.000     0.000000
    6p  6  1  0.00      0.000      0.000     0.000000
    5d  5  2  3.95      0.000      0.000     0.000000
    5f  5  3  0.00      0.000      0.000     0.000000

    Generation configuration: not available.
    Comment:
    molybdenum, fhi98PP : Trouiller-Martins-type, GGA Perdew/Burke/Ernzerhof (1996),
  </PP_INFO>
  <!--                               -->
  <!-- END OF HUMAN READABLE SECTION -->
  <!--                               -->
  <PP_HEADER generated="Generated using FHI98PP, converted with fhi2upf.x v.5.0.2"
             author="unknown"
             date="unknown"
             comment="molybdenum, fhi98PP : Trouiller-Martins-type, GGA Perdew/Burke/Ernzerhof (1996),"
             element=" W"
             pseudo_type="SL"
             relativistic="scalar"
             is_ultrasoft="F"
             is_paw="F"
             is_coulomb="F"
             has_so="F"
             has_wfc="F"
             has_gipaw="F"
             paw_as_gipaw="F"
             core_correction="F"
             functional="PBE"
             z_valence="5.950000000000000E+000"
             total_psenergy="0.000000000000000E+000"
             wfc_cutoff="0.000000000000000E+000"
             rho_cutoff="0.000000000000000E+000"
             l_max="2"
             l_max_rho="0"
             l_local="3"
             mesh_size="563"
             number_of_wfc="4"
             number_of_proj="3"/>
  <PP_MESH dx="2.439988682353512E-002" mesh="563" xmin="-5.075173815233831E+000" rmax="7.626189401739001E+001"
zmesh="7.395000000000000E+001">
    <PP_R type="real" size="563" columns="4">
 8.451656524678800E-005  8.660412440838400E-005  8.874324628127100E-005  9.093520446441900E-005 
 9.318130401469000E-005  9.548288222385200E-005  9.784130941478200E-005  1.002579897573300E-004 
 1.027343621043300E-004  1.052719008483100E-004  1.078721167992600E-004  1.105365580842000E-004 
 1.132668110688800E-004  1.160645013022900E-004  1.189312944844500E-004  1.218688974582200E-004 
 1.248790592254400E-004  1.279635719883000E-004  1.311242722164200E-004  1.343630417401600E-004 
 1.376818088711400E-004  1.410825495502600E-004  1.445672885241500E-004  1.481381005507000E-004 
 1.517971116343000E-004  1.555465002916700E-004  1.593884988488700E-004  1.633253947704400E-004 
 1.673595320212700E-004  1.714933124621900E-004  1.757291972800100E-004  1.800697084528300E-004 
 1.845174302516100E-004  1.890750107788300E-004  1.937451635450600E-004  1.985306690846300E-004 
 2.034343766110200E-004  2.084592057133100E-004  2.136081480944300E-004  2.188842693523600E-004 
 2.242907108053600E-004  2.298306913622600E-004  2.355075094389000E-004  2.413245449220400E-004 
 2.472852611816200E-004  2.533932071328000E-004  2.596520193489900E-004  2.660654242269100E-004 
 2.726372402053100E-004  2.793713800383800E-004  2.862718531253300E-004  2.933427678975200E-004 
 3.005883342645900E-004  3.080128661209300E-004  3.156207839141200E-004  3.234166172767900E-004 
 3.314050077235300E-004  3.395907114143000E-004  3.479786019862400E-004  3.565736734553000E-004 
 3.653810431896400E-004  3.744059549564300E-004  3.836537820438500E-004  3.931300304603300E-004 
 4.028403422127000E-004  4.127904986653600E-004  4.229864239823900E-004  4.334341886547600E-004 
 4.441400131145300E-004  4.551102714384600E-004  4.663514951429900E-004  4.778703770730200E-004 
 4.896737753867200E-004  5.017687176387700E-004  5.141624049644500E-004  5.268622163670700E-004 
 5.398757131113400E-004  5.532106432251900E-004  5.668749461128500E-004  5.808767572818400E-004 
 5.952244131867000E-004  6.099264561924100E-004  6.249916396603600E-004  6.404289331599800E-004 
 6.562475278090300E-004  6.724568417459100E-004  6.890665257370300E-004  7.060864689227400E-004 
 7.235268047051299E-004  7.413979167813500E-004  7.597104453258500E-004  7.784752933253900E-004 
 7.977036330705300E-004  8.174069128073700E-004  8.375968635537200E-004  8.582855060834900E-004 
 8.794851580837500E-004  9.012084414884200E-004  9.234682899931900E-004  9.462779567560200E-004 
 9.696510222878900E-004  9.936014025384000E-004  1.018143357181100E-003  1.043291498103500E-003 
 1.069060798106600E-003  1.095466599819900E-003  1.122524624835400E-003  1.150250983068900E-003 
 1.178662182350700E-003  1.207775138254700E-003  1.237607184169600E-003  1.268176081618600E-003 
 1.299500030834600E-003  1.331597681596200E-003  1.364488144331600E-003  1.398191001496600E-003 
 1.432726319233600E-003  1.468114659318600E-003  1.504377091403800E-003  1.541535205561500E-003 
 1.579611125138800E-003  1.618627519929800E-003  1.658607619672000E-003  1.699575227877900E-003 
 1.741554736006500E-003  1.784571137985900E-003  1.828650045094100E-003  1.873817701208000E-003 
 1.920100998427800E-003  1.967527493089000E-003  2.016125422168300E-003  2.065923720095800E-003 
 2.116952035982200E-003  2.169240751271000E-003  2.222820997827300E-003  2.277724676473700E-003 
 2.333984475982600E-003  2.391633892539300E-003  2.450707249685100E-003  2.511239718752300E-003 
 2.573267339805500E-003  2.636827043098700E-003  2.701956671063200E-003  2.768695000838500E-003 
 2.837081767359200E-003  2.907157687012900E-003  2.978964481882200E-003  3.052544904584700E-003 
 3.127942763727900E-003  3.205202949992000E-003  3.284371462856800E-003  3.365495437989300E-003 
 3.448623175307700E-003  3.533804167737800E-003  3.621089130680900E-003  3.710530032208700E-003 
 3.802180124004300E-003  3.896093973067200E-003  3.992327494201900E-003  4.090937983308700E-003 
 4.191984151496400E-003  4.295526160038400E-003  4.401625656191400E-003  4.510345809899300E-003 
 4.621751351403800E-003  4.735908609783500E-003  4.852885552445100E-003  4.972751825590500E-003 
 5.095578795682600E-003  5.221439591936000E-003  5.350409149856800E-003  5.482564255858200E-003 
 5.617983592977900E-003  5.756747787724500E-003  5.898939458081300E-003  6.044643262695900E-003 
 6.193945951284500E-003  6.346936416281200E-003  6.503705745763400E-003  6.664347277683700E-003 
 6.828956655442500E-003  6.997631884831900E-003  7.170473392387300E-003  7.347584085179200E-003 
 7.529069412083200E-003  7.715037426561600E-003  7.905598850997699E-003  8.100867142617299E-003 
 8.300958561040000E-003  8.505992237497701E-003  8.716090245763900E-003  8.931377674834200E-003 
 9.151982703402600E-003  9.378036676176701E-003  9.609674182078200E-003  9.847033134375601E-003 
 1.009025485279500E-002  1.033948414765900E-002  1.059486940610600E-002  1.085656268043700E-002 
 1.112471977864300E-002  1.139950035717600E-002  1.168106801599800E-002  1.196959039599300E-002 
 1.226523927877400E-002  1.256819068896000E-002  1.287862499897700E-002  1.319672703645200E-002 
 1.352268619425300E-002  1.385669654325100E-002  1.419895694786900E-002  1.454967118448100E-002 
 1.490904806273800E-002  1.527730154988800E-002  1.565465089817000E-002  1.604132077535500E-002 
 1.643754139850600E-002  1.684354867104900E-002  1.725958432322400E-002  1.768589605600700E-002 
 1.812273768859100E-002  1.857036930949900E-002  1.902905743144400E-002  1.949907515000000E-002 
 1.998070230620500E-002  2.047422565316900E-002  2.097993902680200E-002  2.149814352076400E-002 
 2.202914766572700E-002  2.257326761307000E-002  2.313082732311300E-002  2.370215875799400E-002 
 2.428760207931600E-002  2.488750585067500E-002  2.550222724518700E-002  2.613213225814300E-002 
 2.677759592491900E-002  2.743900254426500E-002  2.811674590710800E-002  2.881122953101400E-002 
 2.952286690043000E-002  3.025208171287000E-002  3.099930813117800E-002  3.176499104201800E-002 
 3.254958632075600E-002  3.335356110287900E-002  3.417739406212000E-002  3.502157569545400E-002 
 3.588660861513200E-002  3.677300784792600E-002  3.768130114177000E-002  3.861202927997100E-002 
 3.956574640318700E-002  4.054302033934500E-002  4.154443294172700E-002  4.257058043538800E-002 
 4.362207377214200E-002  4.469953899431400E-002  4.580361760747300E-002  4.693496696237800E-002 
 4.809426064634900E-002  4.928218888431300E-002  5.049945894975600E-002  5.174679558581500E-002 
 5.302494143678500E-002  5.433465749027300E-002  5.567672353028300E-002  5.705193860148100E-002 
 5.846112148493800E-002  5.990511118561500E-002  6.138476743190000E-002  6.290097118746800E-002 
 6.445462517579900E-002  6.604665441764100E-002  6.767800678175601E-002  6.934965354926600E-002 
 7.106258999193300E-002  7.281783596473300E-002  7.461643651306200E-002  7.645946249493500E-002 
 7.834801121856000E-002  8.028320709565800E-002  8.226620231092099E-002  8.429817750800100E-002 
 8.638034249244800E-002  8.851393695201200E-002  9.070023119472700E-002  9.294052690523601E-002 
 9.523615791979601E-002  9.758849102041500E-002  9.999892674861900E-002  1.024689002393100E-001 
 1.049998820752200E-001  1.075933791624800E-001  1.102509356277900E-001  1.129741337378000E-001 
 1.157645948411200E-001  1.186239803337000E-001  1.215539926479400E-001  1.245563762663400E-001 
 1.276329187601200E-001  1.307854518535000E-001  1.340158525142800E-001  1.373260440713800E-001 
 1.407179973599400E-001  1.441937318947400E-001  1.477553170725400E-001  1.514048734042300E-001 
 1.551445737773100E-001  1.589766447496100E-001  1.629033678749300E-001  1.669270810614400E-001 
 1.710501799636500E-001  1.752751194087600E-001  1.796044148581500E-001  1.840406439051500E-001 
 1.885864478096100E-001  1.932445330705000E-001  1.980176730373500E-001  2.029087095613700E-001 
 2.079205546875300E-001  2.130561923883200E-001  2.183186803403100E-001  2.237111517447100E-001 
 2.292368171928100E-001  2.348989665774700E-001  2.407009710519300E-001  2.466462850369200E-001 
 2.527384482773300E-001  2.589810879497800E-001  2.653779208221400E-001  2.719327554664400E-001 
 2.786494945264600E-001  2.855321370412700E-001  2.925847808261900E-001  2.998116249125900E-001 
 3.072169720479400E-001  3.148052312575200E-001  3.225809204695800E-001  3.305486692051800E-001 
 3.387132213345500E-001  3.470794379015100E-001  3.556523000176800E-001  3.644369118281100E-001 
 3.734385035502700E-001  3.826624345879600E-001  3.921141967222800E-001  4.017994173813200E-001 
 4.117238629906400E-001  4.218934424065100E-001  4.323142104339500E-001  4.429923714316700E-001 
 4.539342830060300E-001  4.651464597962800E-001  4.766355773532500E-001  4.884084761138700E-001 
 5.004721654738900E-001  5.128338279610900E-001  5.255008235117300E-001  5.384806938524700E-001 
 5.517811669906300E-001  5.654101618153000E-001  5.793757928121300E-001  5.936863748945900E-001 
 6.083504283544900E-001  6.233766839348500E-001  6.387740880280400E-001  6.545518080023300E-001 
 6.707192376599900E-001  6.872860028301900E-001  7.042619671000900E-001  7.216572376874700E-001 
 7.394821714583500E-001  7.577473810933700E-001  7.764637414063700E-001  7.956423958191100E-001 
 8.152947629958400E-001  8.354325436418401E-001  8.560677274697900E-001  8.772126003383000E-001 
 8.988797515666500E-001  9.210820814303500E-001  9.438328088416800E-001  9.671454792200700E-001 
 9.910339725568000E-001  1.015512511679000E+000  1.040595670717400E+000  1.066298383784100E+000 
 1.092635953863600E+000  1.119624061924000E+000  1.147278776253600E+000  1.175616562027000E+000 
 1.204654291109100E+000  1.234409252099500E+000  1.264899160626400E+000  1.296142169893800E+000 
 1.328156881490200E+000  1.360962356463000E+000  1.394578126667600E+000  1.429024206396300E+000 
 1.464321104294300E+000  1.500489835570400E+000  1.537551934509000E+000  1.575529467291400E+000 
 1.614445045133500E+000  1.654321837748200E+000  1.695183587140600E+000  1.737054621743000E+000 
 1.779959870900100E+000  1.823924879711300E+000  1.868975824240200E+000  1.915139527098900E+000 
 1.962443473418200E+000  2.010915827211700E+000  2.060585448143800E+000  2.111481908712900E+000 
 2.163635511858100E+000  2.217077309001000E+000  2.271839118533400E+000  2.327953544761100E+000 
 2.385453997316700E+000  2.444374711050500E+000  2.504750766413400E+000  2.566618110343800E+000 
 2.630013577669300E+000  2.694974913037800E+000  2.761540793389800E+000  2.829750850986500E+000 
 2.899645697005900E+000  2.971266945721900E+000  3.044657239281300E+000  3.119860273091500E+000 
 3.196920821836900E+000  3.275884766136200E+000  3.356799119859800E+000  3.439712058120300E+000 
 3.524672945955900E+000  3.611732367721000E+000  3.700942157203700E+000  3.792355428486700E+000 
 3.886026607570300E+000  3.982011464777300E+000  4.080367147957300E+000  4.181152216511800E+000 
 4.284426676259600E+000  4.390252015163300E+000  4.498691239937800E+000  4.609808913564300E+000 
 4.723671193729300E+000  4.840345872214400E+000  4.959902415258100E+000  5.082412004915000E+000 
 5.207947581436400E+000  5.336583886697900E+000  5.468397508699300E+000  5.603466927164200E+000 
 5.741872560265100E+000  5.883696812503700E+000  6.029024123772500E+000  6.177941019629700E+000 
 6.330536162814500E+000  6.486900406036100E+000  6.647126846065100E+000  6.811310879163000E+000 
 6.979550257878300E+000  7.151945149247900E+000  7.328598194434300E+000  7.509614569836800E+000 
 7.695102049711800E+000  7.885171070339700E+000  8.079934795777101E+000  8.279509185232801E+000 
 8.484013062108000E+000  8.693568184742100E+000  8.908299318905200E+000  9.128334312082201E+000 
 9.353804169590600E+000  9.584843132579500E+000  9.821588757954199E+000  1.006418200027600E+001 
 1.031276729568200E+001  1.056749264788600E+001  1.082850971628900E+001  1.109597390628100E+001 
 1.137004446176600E+001  1.165088455997200E+001  1.193866140860300E+001  1.223354634539500E+001 
 1.253571494012700E+001  1.284534709914800E+001  1.316262717249700E+001  1.348774406365700E+001 
 1.382089134203000E+001  1.416226735817800E+001  1.451207536192500E+001  1.487052362336500E+001 
 1.523782555686200E+001  1.561419984811600E+001  1.599987058436500E+001  1.639506738779800E+001 
 1.680002555227700E+001  1.721498618341800E+001  1.764019634214900E+001  1.807590919180000E+001 
 1.852238414883700E+001  1.897988703731300E+001  1.944869024713500E+001  1.992907289623900E+001 
 2.042132099677600E+001  2.092572762539700E+001  2.144259309774400E+001  2.197222514725800E+001 
 2.251493910839600E+001  2.307105810437300E+001  2.364091323955100E+001  2.422484379656800E+001 
 2.482319743834300E+001  2.543633041507000E+001  2.606460777632300E+001  2.670840358839800E+001 
 2.736810115703100E+001  2.804409325561000E+001  2.873678235902300E+001  2.944658088329100E+001 
 3.017391143110800E+001  3.091920704345700E+001  3.168291145743000E+001  3.246547937042900E+001 
 3.326737671087800E+001  3.408908091563700E+001  3.493108121425300E+001  3.579387892024500E+001 
 3.667798772957500E+001  3.758393402649600E+001  3.851225719695000E+001  3.946350994971500E+001 
 4.043825864547300E+001  4.143708363401600E+001  4.246057959977600E+001  4.350935591589100E+001 
 4.458403700701300E+001  4.568526272108700E+001  4.681368871029700E+001  4.796998682144200E+001 
 4.915484549593100E+001  5.036897017968100E+001  5.161308374311900E+001  5.288792691157400E+001 
 5.419425870629000E+001  5.553285689633500E+001  5.690451846167500E+001  5.831006006767800E+001 
 5.975031855135000E+001  6.122615141956800E+001  6.273843735963100E+001  6.428807676241399E+001 
 6.587599225844600E+001  6.750312926722999E+001  6.917045656013001E+001  7.087896683716500E+001 
 7.262967731804299E+001  7.442363034779900E+001  7.626189401739001E+001
    </PP_R>
    <PP_RAB type="real" size="563" columns="4">
 2.062194626735549E-006  2.113130834015925E-006  2.165325165616116E-006  2.218808697206849E-006 
 2.273613272027855E-006  2.329771519846922E-006  2.387316876387162E-006  2.446283603233995E-006 
 2.506706808233728E-006  2.568622466397175E-006  2.632067441317106E-006  2.697079507117596E-006 
 2.763697370943407E-006  2.831960696005921E-006  2.901910125197107E-006  2.973587305289575E-006 
 3.047034911730276E-006  3.122296674049809E-006  3.199417401899059E-006  3.278443011725829E-006 
 3.359420554115410E-006  3.442398241802130E-006  3.527425478374608E-006  3.614552887690546E-006 
 3.703832344016447E-006  3.795317002913721E-006  3.889061332885586E-006  3.985121147807930E-006 
 4.083553640158790E-006  4.184417415070582E-006  4.287772525222920E-006  4.393680506596017E-006 
 4.502204415108819E-006  4.613408864162135E-006  4.727360063106766E-006  4.844125856665675E-006 
 4.963775765325308E-006  5.086381026728790E-006  5.212014638089022E-006  5.340751399649761E-006 
 5.472667959221030E-006  5.607842857813975E-006  5.746356576401790E-006  5.888291583838893E-006 
 6.033732385959851E-006  6.182765575892912E-006  6.335479885617708E-006  6.491966238792464E-006 
 6.652317804890523E-006  6.816630054671291E-006  6.985000817021720E-006  7.157530337202020E-006 
 7.334321336530939E-006  7.515479073543367E-006  7.701111406659962E-006  7.891328858404249E-006 
 8.086244681206914E-006  8.285974924832697E-006  8.490638505476231E-006  8.700357276561490E-006 
 8.915256101292413E-006  9.135462926994481E-006  9.361108861291151E-006  9.592328250164967E-006 
 9.829258757944037E-006  1.007204144926541E-005  1.032082087306216E-005  1.057574514862692E-005 
 1.083696605379794E-005  1.110463911532677E-005  1.137892370147534E-005  1.165998311690174E-005 
 1.194798469988913E-005  1.224309992197634E-005  1.254550449004921E-005  1.285537845095338E-005 
 1.317290629869201E-005  1.349827708426970E-005  1.383168452825111E-005  1.417332713609898E-005 
 1.452340831636059E-005  1.488213650177466E-005  1.524972527336843E-005  1.562639348762085E-005 
 1.601236540676505E-005  1.640787083231207E-005  1.681314524187008E-005  1.722842992934441E-005 
 1.765397214859917E-005  1.809002526066965E-005  1.853684888460821E-005  1.899470905205782E-005 
 1.946387836564372E-005  1.994463616127507E-005  2.043726867445876E-005  2.094206921071772E-005 
 2.145933832022240E-005  2.198938397673192E-005  2.253252176095735E-005  2.308907504845295E-005 
 2.365937520214965E-005  2.424376176964272E-005  2.484258268535293E-005  2.545619447768181E-005 
 2.608496248127917E-005  2.672926105456840E-005  2.738947380261498E-005  2.806599380554117E-005 
 2.875922385253800E-005  2.946957668169416E-005  3.019747522573223E-005  3.094335286380808E-005 
 3.170765367954464E-005  3.249083272542903E-005  3.329335629374649E-005  3.411570219420226E-005 
 3.495836003839989E-005  3.582183153134666E-005  3.670663077017167E-005  3.761328455019555E-005 
 3.854233267858369E-005  3.949432829574646E-005  4.046983820464978E-005  4.146944320830467E-005 
 4.249373845555019E-005  4.354333379540324E-005  4.461885414014843E-005  4.572093983741195E-005 
 4.685024705139511E-005  4.800744815356538E-005  4.919323212295848E-005  5.040830495639417E-005 
 5.165339008881793E-005  5.292922882401270E-005  5.423658077596352E-005  5.557622432113143E-005 
 5.694895706186337E-005  5.835559630128968E-005  5.979697952993347E-005  6.127396492432230E-005 
 6.278743185795348E-005  6.433828142484505E-005  6.592743697603779E-005  6.755584466934688E-005 
 6.922447403267948E-005  7.093431854128490E-005  7.268639620925662E-005  7.448175019562549E-005 
 7.632144942545641E-005  7.820658922626570E-005  8.013829198015441E-005  8.211770779206267E-005 
 8.414601517452820E-005  8.622442174933905E-005  8.835416496654714E-005  9.053651284122041E-005 
 9.277276470839966E-005  9.506425199669697E-005  9.741233902101393E-005  9.981842379483330E-005 
 1.022839388625651E-004  1.048103521524714E-004  1.073991678506387E-004  1.100519272965488E-004 
 1.127702099007732E-004  1.155556340853230E-004  1.184098582472291E-004  1.213345817459358E-004 
 1.243315459150608E-004  1.274025350991638E-004  1.305493777161127E-004  1.337739473456991E-004 
 1.370781638451380E-004  1.404639944921140E-004  1.439334551560693E-004  1.474886114984240E-004 
 1.511315802024354E-004  1.548645302334349E-004  1.586896841302020E-004  1.626093193282167E-004 
 1.666257695156239E-004  1.707414260226591E-004  1.749587392454200E-004  1.792802201047803E-004 
 1.837084415413702E-004  1.882460400474407E-004  1.928957172366131E-004  1.976602414523565E-004 
 2.025424494162310E-004  2.075452479168122E-004  2.126716155403576E-004  2.179246044442027E-004 
 2.233073421739744E-004  2.288230335256730E-004  2.344749624537555E-004  2.402664940263650E-004 
 2.462010764288240E-004  2.522822430166151E-004  2.585136144191211E-004  2.648989006952779E-004 
 2.714419035424319E-004  2.781465185599426E-004  2.850167375683671E-004  2.920566509863021E-004 
 2.992704502656631E-004  3.066624303872319E-004  3.142369924177889E-004  3.219986461305149E-004 
 3.299520126899541E-004  3.381018274033947E-004  3.464529425402513E-004  3.550103302209866E-004 
 3.637790853774528E-004  3.727644287862849E-004  3.819717101773004E-004  3.914064114186847E-004 
 4.010741497807196E-004  4.109806812803010E-004  4.211319041079266E-004  4.315338621393770E-004 
 4.421927485342349E-004  4.531149094230256E-004  4.643068476857835E-004  4.757752268236061E-004 
 4.875268749261492E-004  4.995687887368430E-004  5.119081378186364E-004  5.245522688227564E-004 
 5.375087098626817E-004  5.507851749962788E-004  5.643895688186910E-004  5.783299911685154E-004 
 5.926147419503667E-004  6.072523260765381E-004  6.222514585306367E-004  6.376210695563405E-004 
 6.533703099743789E-004  6.695085566307583E-004  6.860454179795295E-004  7.029907398036345E-004 
 7.203546110767831E-004  7.381473699703645E-004  7.563796100086352E-004  7.750621863758462E-004 
 7.942062223793333E-004  8.138231160721109E-004  8.339245470390894E-004  8.545224833509459E-004 
 8.756291886897212E-004  8.972572296503631E-004  9.194194832227328E-004  9.421291444583166E-004 
 9.653997343264545E-004  9.892451077643004E-004  1.013679461926083E-003  1.038717344635666E-003 
 1.064373663048165E-003  1.090663692525457E-003  1.117603085730822E-003  1.145207881948383E-003 
 1.173494516632515E-003  1.202479831193318E-003  1.232181083023804E-003  1.262615955774493E-003 
 1.293802569882132E-003  1.325759493358206E-003  1.358505752844160E-003  1.392060844939411E-003 
 1.426444747809425E-003  1.461677933080294E-003  1.497781378027385E-003  1.534776578064663E-003 
 1.572685559542873E-003  1.611530892863576E-003  1.651335705917289E-003  1.692123697853461E-003 
 1.733919153190445E-003  1.776746956274231E-003  1.820632606094206E-003  1.865602231464742E-003 
 1.911682606581924E-003  1.958901166964487E-003  2.007286025788516E-003  2.056865990625498E-003 
 2.107670580593933E-003  2.159730043934616E-003  2.213075376019809E-003  2.267738337807480E-003 
 2.323751474751340E-003  2.381148136177699E-003  2.439962495141283E-003  2.500229568771275E-003 
 2.561985239119902E-003  2.625266274526214E-003  2.690110351506932E-003  2.756556077189241E-003 
 2.824643012295726E-003  2.894411694699536E-003  2.965903663558556E-003  3.039161484048352E-003 
 3.114228772704381E-003  3.191150223390301E-003  3.269971633908007E-003  3.350739933265468E-003 
 3.433503209617050E-003  3.518310738894822E-003  3.605213014145523E-003  3.694261775594875E-003 
 3.785510041451959E-003  3.879012139475833E-003  3.974823739320999E-003  4.073001885682209E-003 
 4.173605032258374E-003  4.276693076555348E-003  4.382327395546110E-003  4.490570882216188E-003 
 4.601487983006997E-003  4.715144736187090E-003  4.831608811171122E-003  4.950949548806986E-003 
 5.073238002662377E-003  5.198546981328333E-003  5.326951091767106E-003  5.458526783733616E-003 
 5.593352395291974E-003  5.731508199455627E-003  5.873076451982095E-003  6.018141440346232E-003 
 6.166789533922737E-003  6.319109235410627E-003  6.475191233525281E-003  6.635128456993188E-003 
 6.799016129880893E-003  6.966951828289108E-003  7.139035538447865E-003  7.315369716247359E-003 
 7.496059348238889E-003  7.681212014140289E-003  7.870937950889535E-003  8.065350118276540E-003 
 8.264564266198022E-003  8.468699003573030E-003  8.677875868961351E-003  8.892219402924532E-003 
 9.111857222176906E-003  9.336920095564636E-003  9.567542021925017E-003  9.803860309866559E-003 
 1.004601565952030E-002  1.029415224631048E-002  1.054841780679433E-002  1.080896372662218E-002 
 1.107594513066969E-002  1.134952097539726E-002  1.162985414348962E-002  1.191711154083368E-002 
 1.221146419589246E-002  1.251308736153088E-002  1.282216061936072E-002  1.313886798665893E-002 
 1.346339802592950E-002  1.379594395717000E-002  1.413670377291191E-002  1.448588035610284E-002 
 1.484368160089867E-002  1.521032053644096E-002  1.558601545369104E-002  1.597099003539714E-002 
 1.636547348927151E-002  1.676970068445648E-002  1.718391229136241E-002  1.760835492495925E-002 
 1.804328129160573E-002  1.848895033950837E-002  1.894562741289407E-002  1.941358440999262E-002 
 1.989309994491939E-002  2.038445951355896E-002  2.088795566354378E-002  2.140388816843346E-002 
 2.193256420619363E-002  2.247429854208670E-002  2.302941371607625E-002  2.359824023486335E-002 
 2.418111676866433E-002  2.477839035285149E-002  2.539041659456518E-002  2.601755988445046E-002 
 2.666019361359718E-002  2.731870039585228E-002  2.799347229563172E-002  2.868491106133226E-002 
 2.939342836454797E-002  3.011944604515243E-002  3.086339636246873E-002  3.162572225261995E-002 
 3.240687759226023E-002  3.320732746878886E-002  3.402754845726707E-002  3.486802890416181E-002 
 3.572926921809489E-002  3.661178216778258E-002  3.751609318732708E-002  3.844274068905474E-002 
 3.939227638407445E-002  4.036526561075871E-002  4.136228767134493E-002  4.238393617682781E-002 
 4.343081940039663E-002  4.450356063958563E-002  4.560279858738415E-002  4.672918771249173E-002 
 4.788339864898923E-002  4.906611859562098E-002  5.027805172493212E-002  5.151991960253668E-002 
 5.279246161671913E-002  5.409643541865221E-002  5.543261737349475E-002  5.680180302261825E-002 
 5.820480755727693E-002  5.964246630394356E-002  6.111563522164981E-002  6.262519141162430E-002 
 6.417203363949162E-002  6.575708287038871E-002  6.738128281728650E-002  6.904560050287280E-002 
 7.075102683529458E-002  7.249857719812523E-002  7.428929205492062E-002  7.612423756867598E-002 
 7.800450623662325E-002  7.993121754066609E-002  8.190551861392142E-002  8.392858492368438E-002 
 8.600162097130008E-002  8.812586100929093E-002  9.030256977622020E-002  9.253304324969452E-002 
 9.481860941796146E-002  9.716062907058544E-002  9.956049660862890E-002  1.020196408748609E-001 
 1.045395260044690E-001  1.071216522967815E-001  1.097675571085112E-001  1.124788157690923E-001 
 1.152570425185880E-001  1.181038914687968E-001  1.210210575880761E-001  1.240102777105022E-001 
 1.270733315699516E-001  1.302120428597299E-001  1.334282803183643E-001  1.367239588422286E-001 
 1.401010406256303E-001  1.435615363290846E-001  1.471075062764120E-001  1.507410616814399E-001 
 1.544643659049701E-001  1.582796357428249E-001  1.621891427456704E-001  1.661952145714907E-001 
 1.703002363714059E-001  1.745066522097798E-001  1.788169665193608E-001  1.832337455923883E-001 
 1.877596191085211E-001  1.923972817005020E-001  1.971494945585046E-001  2.020190870740998E-001 
 2.070089585248288E-001  2.121220798003929E-001  2.173614951714619E-001  2.227303241021980E-001 
 2.282317631075216E-001  2.338690876562776E-001  2.396456541213873E-001  2.455649017781937E-001 
 2.516303548520952E-001  2.578456246169579E-001  2.642144115450020E-001  2.707405075101553E-001 
 2.774277980456527E-001  2.842802646573896E-001  2.913019871944196E-001  2.984971462781097E-001 
 3.058700257911972E-001  3.134250154282364E-001  3.211666133093149E-001  3.290994286580385E-001 
 3.372281845459084E-001  3.455577207041889E-001  3.540929964055824E-001  3.628390934168114E-001 
 3.718012190242038E-001  3.809847091340897E-001  3.903950314497148E-001  4.000377887265028E-001 
 4.099187221080569E-001  4.200437145441200E-001  4.304187942933738E-001  4.410501385124182E-001 
 4.519440769336637E-001  4.631070956339185E-001  4.745458408960853E-001  4.862671231662128E-001 
 4.982779211084158E-001  5.105853857598091E-001  5.231968447880689E-001  5.361198068543276E-001 
 5.493619660836472E-001  5.629312066459040E-001  5.768356074500575E-001  5.910834469540760E-001 
 6.056832080938361E-001  6.206435833337521E-001  6.359734798421146E-001  6.516820247942104E-001 
 6.677785708066170E-001  6.842727015055486E-001  7.011742372327218E-001  7.184932408923732E-001 
 7.362400239424078E-001  7.544251525338007E-001  7.730594538013762E-001  7.921540223102819E-001 
 8.117202266613311E-001  8.317697162598737E-001  8.523144282514870E-001  8.733665946292974E-001 
 8.949387495166399E-001  9.170437366297131E-001  9.396947169244561E-001  9.629051764324981E-001 
 9.866889342903818E-001  1.011060150967350E+000  1.036033336696238E+000  1.061623360112649E+000 
 1.087845457107419E+000  1.114715239897991E+000  1.142248706323451E+000  1.170462249369656E+000 
 1.199372666929071E+000  1.228997171802232E+000  1.259353401945744E+000  1.290459430973803E+000 
 1.322333778918859E+000  1.354995423258146E+000  1.388463810212635E+000  1.422758866324878E+000 
 1.457901010323111E+000  1.493911165278083E+000  1.530810771060444E+000  1.568621797105640E+000 
 1.607366755494158E+000  1.647068714354873E+000  1.687751311599425E+000  1.729438768995925E+000 
 1.772155906590125E+000  1.815928157482910E+000  1.860781582972746E+000
    </PP_RAB>
  </PP_MESH>
  <PP_LOCAL type="real" size="563" columns="4">
-1.742437634880460E+001 -1.742437643166920E+001 -1.742437651251980E+001 -1.742437659140460E+001 
-1.742437666836980E+001 -1.742437674346080E+001 -1.742437681672200E+001 -1.742437688819620E+001 
-1.742437695792580E+001 -1.742437702595160E+001 -1.742437709231340E+001 -1.742437715705040E+001 